[Molden Format]
[Atoms] AU
Br         1    35         0.0000000000         0.0000000000        -3.1395596782
C_a        2     6         0.0000000000         0.0000000000         0.4512006025
C_b        3     6         0.0000000000         0.0000000000         2.7188395815
C_c        4     6         0.0000000000         0.0000000000         5.6136607467
C_d        5     6         0.0000000000         0.0000000000         7.8813982749
H          6     1         0.0000000000         0.0000000000         9.8939935044
[GTO]
    1 0
 s  20 1.00
   0.1063900000000000E+08   0.5900000000000000E-05
   0.1593400000000000E+07   0.4610000000000000E-04
   0.3626100000000000E+06   0.2422000000000000E-03
   0.1027000000000000E+06   0.1022600000000000E-02
   0.3350100000000000E+05   0.3711300000000000E-02
   0.1209300000000000E+05   0.1197850000000000E-01
   0.4715900000000000E+04   0.3469270000000000E-01
   0.1955600000000000E+04   0.8912390000000001E-01
   0.8526100000000000E+03   0.1934557000000000E+00
   0.3876700000000000E+03   0.3209019000000000E+00
   0.1826800000000000E+03   0.3299233000000000E+00
   0.8824500000000000E+02   0.1494121000000000E+00
   0.3926300000000000E+02   0.1499380000000000E-01
   0.1923400000000000E+02  -0.9165000000000000E-03
   0.9405700000000000E+01   0.4380000000000000E-03
   0.4160100000000000E+01  -0.2398000000000000E-03
   0.1899500000000000E+01   0.7360000000000000E-04
   0.6047200000000000E+00  -0.3670000000000000E-04
   0.3011400000000000E+00   0.2390000000000000E-04
   0.1251500000000000E+00  -0.5600000000000000E-05
 s  20 1.00
   0.1063900000000000E+08  -0.1900000000000000E-05
   0.1593400000000000E+07  -0.1450000000000000E-04
   0.3626100000000000E+06  -0.7610000000000001E-04
   0.1027000000000000E+06  -0.3210000000000000E-03
   0.3350100000000000E+05  -0.1170900000000000E-02
   0.1209300000000000E+05  -0.3796800000000000E-02
   0.4715900000000000E+04  -0.1123070000000000E-01
   0.1955600000000000E+04  -0.2992770000000000E-01
   0.8526100000000000E+03  -0.7127060000000000E-01
   0.3876700000000000E+03  -0.1403136000000000E+00
   0.1826800000000000E+03  -0.2030763000000000E+00
   0.8824500000000000E+02  -0.9609850000000000E-01
   0.3926300000000000E+02   0.3558086000000000E+00
   0.1923400000000000E+02   0.5921792000000000E+00
   0.9405700000000000E+01   0.2215977000000000E+00
   0.4160100000000000E+01   0.1376480000000000E-01
   0.1899500000000000E+01   0.8395000000000000E-03
   0.6047200000000000E+00  -0.4510000000000000E-04
   0.3011400000000000E+00  -0.8500000000000000E-05
   0.1251500000000000E+00  -0.1240000000000000E-04
 s  20 1.00
   0.1063900000000000E+08   0.7000000000000000E-06
   0.1593400000000000E+07   0.5700000000000000E-05
   0.3626100000000000E+06   0.3030000000000000E-04
   0.1027000000000000E+06   0.1275000000000000E-03
   0.3350100000000000E+05   0.4659000000000000E-03
   0.1209300000000000E+05   0.1509600000000000E-02
   0.4715900000000000E+04   0.4485200000000000E-02
   0.1955600000000000E+04   0.1198350000000000E-01
   0.8526100000000000E+03   0.2895710000000000E-01
   0.3876700000000000E+03   0.5815660000000000E-01
   0.1826800000000000E+03   0.8881330000000000E-01
   0.8824500000000000E+02   0.4452440000000000E-01
   0.3926300000000000E+02  -0.2060387000000000E+00
   0.1923400000000000E+02  -0.5127017000000000E+00
   0.9405700000000000E+01  -0.1509349000000000E+00
   0.4160100000000000E+01   0.6789203000000000E+00
   0.1899500000000000E+01   0.5817696999999999E+00
   0.6047200000000000E+00   0.4675550000000000E-01
   0.3011400000000000E+00  -0.1118250000000000E-01
   0.1251500000000000E+00   0.2440200000000000E-02
 s  20 1.00
   0.1063900000000000E+08  -0.2000000000000000E-06
   0.1593400000000000E+07  -0.1800000000000000E-05
   0.3626100000000000E+06  -0.9300000000000001E-05
   0.1027000000000000E+06  -0.3910000000000000E-04
   0.3350100000000000E+05  -0.1428000000000000E-03
   0.1209300000000000E+05  -0.4628000000000000E-03
   0.4715900000000000E+04  -0.1375000000000000E-02
   0.1955600000000000E+04  -0.3678400000000000E-02
   0.8526100000000000E+03  -0.8898100000000001E-02
   0.3876700000000000E+03  -0.1795290000000000E-01
   0.1826800000000000E+03  -0.2757320000000000E-01
   0.8824500000000000E+02  -0.1409530000000000E-01
   0.3926300000000000E+02   0.6725610000000000E-01
   0.1923400000000000E+02   0.1766928000000000E+00
   0.9405700000000000E+01   0.5288610000000000E-01
   0.4160100000000000E+01  -0.3075955000000000E+00
   0.1899500000000000E+01  -0.4700658000000000E+00
   0.6047200000000000E+00   0.2558761000000000E+00
   0.3011400000000000E+00   0.6980341000000000E+00
   0.1251500000000000E+00   0.2967256000000000E+00
 s  20 1.00
   0.1063900000000000E+08   0.0000000000000000E+00
   0.1593400000000000E+07   0.0000000000000000E+00
   0.3626100000000000E+06   0.0000000000000000E+00
   0.1027000000000000E+06   0.0000000000000000E+00
   0.3350100000000000E+05   0.0000000000000000E+00
   0.1209300000000000E+05   0.0000000000000000E+00
   0.4715900000000000E+04   0.0000000000000000E+00
   0.1955600000000000E+04   0.0000000000000000E+00
   0.8526100000000000E+03   0.0000000000000000E+00
   0.3876700000000000E+03   0.0000000000000000E+00
   0.1826800000000000E+03   0.0000000000000000E+00
   0.8824500000000000E+02   0.0000000000000000E+00
   0.3926300000000000E+02   0.0000000000000000E+00
   0.1923400000000000E+02   0.0000000000000000E+00
   0.9405700000000000E+01   0.0000000000000000E+00
   0.4160100000000000E+01   0.0000000000000000E+00
   0.1899500000000000E+01   0.0000000000000000E+00
   0.6047200000000000E+00   0.1000000000000000E+01
   0.3011400000000000E+00   0.0000000000000000E+00
   0.1251500000000000E+00   0.0000000000000000E+00
 s  20 1.00
   0.1063900000000000E+08   0.0000000000000000E+00
   0.1593400000000000E+07   0.0000000000000000E+00
   0.3626100000000000E+06   0.0000000000000000E+00
   0.1027000000000000E+06   0.0000000000000000E+00
   0.3350100000000000E+05   0.0000000000000000E+00
   0.1209300000000000E+05   0.0000000000000000E+00
   0.4715900000000000E+04   0.0000000000000000E+00
   0.1955600000000000E+04   0.0000000000000000E+00
   0.8526100000000000E+03   0.0000000000000000E+00
   0.3876700000000000E+03   0.0000000000000000E+00
   0.1826800000000000E+03   0.0000000000000000E+00
   0.8824500000000000E+02   0.0000000000000000E+00
   0.3926300000000000E+02   0.0000000000000000E+00
   0.1923400000000000E+02   0.0000000000000000E+00
   0.9405700000000000E+01   0.0000000000000000E+00
   0.4160100000000000E+01   0.0000000000000000E+00
   0.1899500000000000E+01   0.0000000000000000E+00
   0.6047200000000000E+00   0.0000000000000000E+00
   0.3011400000000000E+00   0.0000000000000000E+00
   0.1251500000000000E+00   0.1000000000000000E+01
 p  13 1.00
   0.8676500000000000E+04   0.4357000000000000E-03
   0.2055900000000000E+04   0.3781500000000000E-02
   0.6662300000000000E+03   0.2047820000000000E-01
   0.2531000000000000E+03   0.7928340000000000E-01
   0.1061200000000000E+03   0.2178473000000000E+00
   0.4724200000000000E+02   0.3878585000000000E+00
   0.2182500000000000E+02   0.3594350000000000E+00
   0.9968400000000001E+01   0.1121995000000000E+00
   0.4517100000000000E+01   0.4387400000000000E-02
   0.1998200000000000E+01   0.1780900000000000E-02
   0.7098800000000000E+00  -0.4576000000000000E-03
   0.2814500000000000E+00   0.2122000000000000E-03
   0.1020400000000000E+00  -0.7340000000000000E-04
 p  13 1.00
   0.8676500000000000E+04  -0.1748000000000000E-03
   0.2055900000000000E+04  -0.1526300000000000E-02
   0.6662300000000000E+03  -0.8339900000000001E-02
   0.2531000000000000E+03  -0.3322030000000000E-01
   0.1061200000000000E+03  -0.9541800000000000E-01
   0.4724200000000000E+02  -0.1824026000000000E+00
   0.2182500000000000E+02  -0.1558308000000000E+00
   0.9968400000000001E+01   0.1867899000000000E+00
   0.4517100000000000E+01   0.5427733000000000E+00
   0.1998200000000000E+01   0.3873309000000000E+00
   0.7098800000000000E+00   0.4530690000000000E-01
   0.2814500000000000E+00  -0.4378400000000000E-02
   0.1020400000000000E+00   0.1811100000000000E-02
 p  13 1.00
   0.8676500000000000E+04   0.4510000000000000E-04
   0.2055900000000000E+04   0.3964000000000000E-03
   0.6662300000000000E+03   0.2155500000000000E-02
   0.2531000000000000E+03   0.8671999999999999E-02
   0.1061200000000000E+03   0.2486800000000000E-01
   0.4724200000000000E+02   0.4854720000000000E-01
   0.2182500000000000E+02   0.3961560000000000E-01
   0.9968400000000001E+01  -0.6057490000000000E-01
   0.4517100000000000E+01  -0.1871699000000000E+00
   0.1998200000000000E+01  -0.1377757000000000E+00
   0.7098800000000000E+00   0.2928021000000000E+00
   0.2814500000000000E+00   0.5760896000000000E+00
   0.1020400000000000E+00   0.3078617000000000E+00
 p  13 1.00
   0.8676500000000000E+04   0.0000000000000000E+00
   0.2055900000000000E+04   0.0000000000000000E+00
   0.6662300000000000E+03   0.0000000000000000E+00
   0.2531000000000000E+03   0.0000000000000000E+00
   0.1061200000000000E+03   0.0000000000000000E+00
   0.4724200000000000E+02   0.0000000000000000E+00
   0.2182500000000000E+02   0.0000000000000000E+00
   0.9968400000000001E+01   0.0000000000000000E+00
   0.4517100000000000E+01   0.0000000000000000E+00
   0.1998200000000000E+01   0.0000000000000000E+00
   0.7098800000000000E+00   0.1000000000000000E+01
   0.2814500000000000E+00   0.0000000000000000E+00
   0.1020400000000000E+00   0.0000000000000000E+00
 p  13 1.00
   0.8676500000000000E+04   0.0000000000000000E+00
   0.2055900000000000E+04   0.0000000000000000E+00
   0.6662300000000000E+03   0.0000000000000000E+00
   0.2531000000000000E+03   0.0000000000000000E+00
   0.1061200000000000E+03   0.0000000000000000E+00
   0.4724200000000000E+02   0.0000000000000000E+00
   0.2182500000000000E+02   0.0000000000000000E+00
   0.9968400000000001E+01   0.0000000000000000E+00
   0.4517100000000000E+01   0.0000000000000000E+00
   0.1998200000000000E+01   0.0000000000000000E+00
   0.7098800000000000E+00   0.0000000000000000E+00
   0.2814500000000000E+00   0.0000000000000000E+00
   0.1020400000000000E+00   0.1000000000000000E+01
 d   9 1.00
   0.4038300000000000E+03   0.1473200000000000E-02
   0.1211700000000000E+03   0.1267250000000000E-01
   0.4634500000000000E+02   0.5804510000000000E-01
   0.1972100000000000E+02   0.1705103000000000E+00
   0.8862399999999999E+01   0.3185958000000000E+00
   0.3996200000000000E+01   0.3845023000000000E+00
   0.1763600000000000E+01   0.2737737000000000E+00
   0.7061900000000000E+00   0.7439670000000000E-01
   0.2639000000000000E+00   0.0000000000000000E+00
 d   9 1.00
   0.4038300000000000E+03   0.0000000000000000E+00
   0.1211700000000000E+03   0.0000000000000000E+00
   0.4634500000000000E+02   0.0000000000000000E+00
   0.1972100000000000E+02   0.0000000000000000E+00
   0.8862399999999999E+01   0.0000000000000000E+00
   0.3996200000000000E+01   0.0000000000000000E+00
   0.1763600000000000E+01   0.0000000000000000E+00
   0.7061900000000000E+00   0.1000000000000000E+01
   0.2639000000000000E+00   0.0000000000000000E+00
 d   9 1.00
   0.4038300000000000E+03   0.0000000000000000E+00
   0.1211700000000000E+03   0.0000000000000000E+00
   0.4634500000000000E+02   0.0000000000000000E+00
   0.1972100000000000E+02   0.0000000000000000E+00
   0.8862399999999999E+01   0.0000000000000000E+00
   0.3996200000000000E+01   0.0000000000000000E+00
   0.1763600000000000E+01   0.0000000000000000E+00
   0.7061900000000000E+00   0.0000000000000000E+00
   0.2639000000000000E+00   0.1000000000000000E+01
 f   1 1.00
   0.5515000000000000E+00   0.1000000000000000E+01

    2 0
 s  10 1.00
   0.8236000000000000E+04   0.5310000000000000E-03
   0.1235000000000000E+04   0.4108000000000000E-02
   0.2808000000000000E+03   0.2108700000000000E-01
   0.7927000000000000E+02   0.8185300000000000E-01
   0.2559000000000000E+02   0.2348170000000000E+00
   0.8997000000000000E+01   0.4344010000000000E+00
   0.3319000000000000E+01   0.3461290000000000E+00
   0.9059000000000000E+00   0.3937800000000000E-01
   0.3643000000000000E+00  -0.8983000000000000E-02
   0.1285000000000000E+00   0.2385000000000000E-02
 s  10 1.00
   0.8236000000000000E+04  -0.1130000000000000E-03
   0.1235000000000000E+04  -0.8780000000000000E-03
   0.2808000000000000E+03  -0.4540000000000000E-02
   0.7927000000000000E+02  -0.1813300000000000E-01
   0.2559000000000000E+02  -0.5576000000000000E-01
   0.8997000000000000E+01  -0.1268950000000000E+00
   0.3319000000000000E+01  -0.1703520000000000E+00
   0.9059000000000000E+00   0.1403820000000000E+00
   0.3643000000000000E+00   0.5986840000000000E+00
   0.1285000000000000E+00   0.3953890000000000E+00
 s  10 1.00
   0.8236000000000000E+04   0.0000000000000000E+00
   0.1235000000000000E+04   0.0000000000000000E+00
   0.2808000000000000E+03   0.0000000000000000E+00
   0.7927000000000000E+02   0.0000000000000000E+00
   0.2559000000000000E+02   0.0000000000000000E+00
   0.8997000000000000E+01   0.0000000000000000E+00
   0.3319000000000000E+01   0.0000000000000000E+00
   0.9059000000000000E+00   0.1000000000000000E+01
   0.3643000000000000E+00   0.0000000000000000E+00
   0.1285000000000000E+00   0.0000000000000000E+00
 s  10 1.00
   0.8236000000000000E+04   0.0000000000000000E+00
   0.1235000000000000E+04   0.0000000000000000E+00
   0.2808000000000000E+03   0.0000000000000000E+00
   0.7927000000000000E+02   0.0000000000000000E+00
   0.2559000000000000E+02   0.0000000000000000E+00
   0.8997000000000000E+01   0.0000000000000000E+00
   0.3319000000000000E+01   0.0000000000000000E+00
   0.9059000000000000E+00   0.0000000000000000E+00
   0.3643000000000000E+00   0.0000000000000000E+00
   0.1285000000000000E+00   0.1000000000000000E+01
 p   5 1.00
   0.1871000000000000E+02   0.1403100000000000E-01
   0.4133000000000000E+01   0.8686600000000000E-01
   0.1200000000000000E+01   0.2902160000000000E+00
   0.3827000000000000E+00   0.5010080000000000E+00
   0.1209000000000000E+00   0.3434060000000000E+00
 p   5 1.00
   0.1871000000000000E+02   0.0000000000000000E+00
   0.4133000000000000E+01   0.0000000000000000E+00
   0.1200000000000000E+01   0.0000000000000000E+00
   0.3827000000000000E+00   0.1000000000000000E+01
   0.1209000000000000E+00   0.0000000000000000E+00
 p   5 1.00
   0.1871000000000000E+02   0.0000000000000000E+00
   0.4133000000000000E+01   0.0000000000000000E+00
   0.1200000000000000E+01   0.0000000000000000E+00
   0.3827000000000000E+00   0.0000000000000000E+00
   0.1209000000000000E+00   0.1000000000000000E+01
 d   2 1.00
   0.1097000000000000E+01   0.1000000000000000E+01
   0.3180000000000000E+00   0.0000000000000000E+00
 d   2 1.00
   0.1097000000000000E+01   0.0000000000000000E+00
   0.3180000000000000E+00   0.1000000000000000E+01
 f   1 1.00
   0.7610000000000000E+00   0.1000000000000000E+01

    3 0
 s  10 1.00
   0.8236000000000000E+04   0.5310000000000000E-03
   0.1235000000000000E+04   0.4108000000000000E-02
   0.2808000000000000E+03   0.2108700000000000E-01
   0.7927000000000000E+02   0.8185300000000000E-01
   0.2559000000000000E+02   0.2348170000000000E+00
   0.8997000000000000E+01   0.4344010000000000E+00
   0.3319000000000000E+01   0.3461290000000000E+00
   0.9059000000000000E+00   0.3937800000000000E-01
   0.3643000000000000E+00  -0.8983000000000000E-02
   0.1285000000000000E+00   0.2385000000000000E-02
 s  10 1.00
   0.8236000000000000E+04  -0.1130000000000000E-03
   0.1235000000000000E+04  -0.8780000000000000E-03
   0.2808000000000000E+03  -0.4540000000000000E-02
   0.7927000000000000E+02  -0.1813300000000000E-01
   0.2559000000000000E+02  -0.5576000000000000E-01
   0.8997000000000000E+01  -0.1268950000000000E+00
   0.3319000000000000E+01  -0.1703520000000000E+00
   0.9059000000000000E+00   0.1403820000000000E+00
   0.3643000000000000E+00   0.5986840000000000E+00
   0.1285000000000000E+00   0.3953890000000000E+00
 s  10 1.00
   0.8236000000000000E+04   0.0000000000000000E+00
   0.1235000000000000E+04   0.0000000000000000E+00
   0.2808000000000000E+03   0.0000000000000000E+00
   0.7927000000000000E+02   0.0000000000000000E+00
   0.2559000000000000E+02   0.0000000000000000E+00
   0.8997000000000000E+01   0.0000000000000000E+00
   0.3319000000000000E+01   0.0000000000000000E+00
   0.9059000000000000E+00   0.1000000000000000E+01
   0.3643000000000000E+00   0.0000000000000000E+00
   0.1285000000000000E+00   0.0000000000000000E+00
 s  10 1.00
   0.8236000000000000E+04   0.0000000000000000E+00
   0.1235000000000000E+04   0.0000000000000000E+00
   0.2808000000000000E+03   0.0000000000000000E+00
   0.7927000000000000E+02   0.0000000000000000E+00
   0.2559000000000000E+02   0.0000000000000000E+00
   0.8997000000000000E+01   0.0000000000000000E+00
   0.3319000000000000E+01   0.0000000000000000E+00
   0.9059000000000000E+00   0.0000000000000000E+00
   0.3643000000000000E+00   0.0000000000000000E+00
   0.1285000000000000E+00   0.1000000000000000E+01
 p   5 1.00
   0.1871000000000000E+02   0.1403100000000000E-01
   0.4133000000000000E+01   0.8686600000000000E-01
   0.1200000000000000E+01   0.2902160000000000E+00
   0.3827000000000000E+00   0.5010080000000000E+00
   0.1209000000000000E+00   0.3434060000000000E+00
 p   5 1.00
   0.1871000000000000E+02   0.0000000000000000E+00
   0.4133000000000000E+01   0.0000000000000000E+00
   0.1200000000000000E+01   0.0000000000000000E+00
   0.3827000000000000E+00   0.1000000000000000E+01
   0.1209000000000000E+00   0.0000000000000000E+00
 p   5 1.00
   0.1871000000000000E+02   0.0000000000000000E+00
   0.4133000000000000E+01   0.0000000000000000E+00
   0.1200000000000000E+01   0.0000000000000000E+00
   0.3827000000000000E+00   0.0000000000000000E+00
   0.1209000000000000E+00   0.1000000000000000E+01
 d   2 1.00
   0.1097000000000000E+01   0.1000000000000000E+01
   0.3180000000000000E+00   0.0000000000000000E+00
 d   2 1.00
   0.1097000000000000E+01   0.0000000000000000E+00
   0.3180000000000000E+00   0.1000000000000000E+01
 f   1 1.00
   0.7610000000000000E+00   0.1000000000000000E+01

    4 0
 s  10 1.00
   0.8236000000000000E+04   0.5310000000000000E-03
   0.1235000000000000E+04   0.4108000000000000E-02
   0.2808000000000000E+03   0.2108700000000000E-01
   0.7927000000000000E+02   0.8185300000000000E-01
   0.2559000000000000E+02   0.2348170000000000E+00
   0.8997000000000000E+01   0.4344010000000000E+00
   0.3319000000000000E+01   0.3461290000000000E+00
   0.9059000000000000E+00   0.3937800000000000E-01
   0.3643000000000000E+00  -0.8983000000000000E-02
   0.1285000000000000E+00   0.2385000000000000E-02
 s  10 1.00
   0.8236000000000000E+04  -0.1130000000000000E-03
   0.1235000000000000E+04  -0.8780000000000000E-03
   0.2808000000000000E+03  -0.4540000000000000E-02
   0.7927000000000000E+02  -0.1813300000000000E-01
   0.2559000000000000E+02  -0.5576000000000000E-01
   0.8997000000000000E+01  -0.1268950000000000E+00
   0.3319000000000000E+01  -0.1703520000000000E+00
   0.9059000000000000E+00   0.1403820000000000E+00
   0.3643000000000000E+00   0.5986840000000000E+00
   0.1285000000000000E+00   0.3953890000000000E+00
 s  10 1.00
   0.8236000000000000E+04   0.0000000000000000E+00
   0.1235000000000000E+04   0.0000000000000000E+00
   0.2808000000000000E+03   0.0000000000000000E+00
   0.7927000000000000E+02   0.0000000000000000E+00
   0.2559000000000000E+02   0.0000000000000000E+00
   0.8997000000000000E+01   0.0000000000000000E+00
   0.3319000000000000E+01   0.0000000000000000E+00
   0.9059000000000000E+00   0.1000000000000000E+01
   0.3643000000000000E+00   0.0000000000000000E+00
   0.1285000000000000E+00   0.0000000000000000E+00
 s  10 1.00
   0.8236000000000000E+04   0.0000000000000000E+00
   0.1235000000000000E+04   0.0000000000000000E+00
   0.2808000000000000E+03   0.0000000000000000E+00
   0.7927000000000000E+02   0.0000000000000000E+00
   0.2559000000000000E+02   0.0000000000000000E+00
   0.8997000000000000E+01   0.0000000000000000E+00
   0.3319000000000000E+01   0.0000000000000000E+00
   0.9059000000000000E+00   0.0000000000000000E+00
   0.3643000000000000E+00   0.0000000000000000E+00
   0.1285000000000000E+00   0.1000000000000000E+01
 p   5 1.00
   0.1871000000000000E+02   0.1403100000000000E-01
   0.4133000000000000E+01   0.8686600000000000E-01
   0.1200000000000000E+01   0.2902160000000000E+00
   0.3827000000000000E+00   0.5010080000000000E+00
   0.1209000000000000E+00   0.3434060000000000E+00
 p   5 1.00
   0.1871000000000000E+02   0.0000000000000000E+00
   0.4133000000000000E+01   0.0000000000000000E+00
   0.1200000000000000E+01   0.0000000000000000E+00
   0.3827000000000000E+00   0.1000000000000000E+01
   0.1209000000000000E+00   0.0000000000000000E+00
 p   5 1.00
   0.1871000000000000E+02   0.0000000000000000E+00
   0.4133000000000000E+01   0.0000000000000000E+00
   0.1200000000000000E+01   0.0000000000000000E+00
   0.3827000000000000E+00   0.0000000000000000E+00
   0.1209000000000000E+00   0.1000000000000000E+01
 d   2 1.00
   0.1097000000000000E+01   0.1000000000000000E+01
   0.3180000000000000E+00   0.0000000000000000E+00
 d   2 1.00
   0.1097000000000000E+01   0.0000000000000000E+00
   0.3180000000000000E+00   0.1000000000000000E+01
 f   1 1.00
   0.7610000000000000E+00   0.1000000000000000E+01

    5 0
 s  10 1.00
   0.8236000000000000E+04   0.5310000000000000E-03
   0.1235000000000000E+04   0.4108000000000000E-02
   0.2808000000000000E+03   0.2108700000000000E-01
   0.7927000000000000E+02   0.8185300000000000E-01
   0.2559000000000000E+02   0.2348170000000000E+00
   0.8997000000000000E+01   0.4344010000000000E+00
   0.3319000000000000E+01   0.3461290000000000E+00
   0.9059000000000000E+00   0.3937800000000000E-01
   0.3643000000000000E+00  -0.8983000000000000E-02
   0.1285000000000000E+00   0.2385000000000000E-02
 s  10 1.00
   0.8236000000000000E+04  -0.1130000000000000E-03
   0.1235000000000000E+04  -0.8780000000000000E-03
   0.2808000000000000E+03  -0.4540000000000000E-02
   0.7927000000000000E+02  -0.1813300000000000E-01
   0.2559000000000000E+02  -0.5576000000000000E-01
   0.8997000000000000E+01  -0.1268950000000000E+00
   0.3319000000000000E+01  -0.1703520000000000E+00
   0.9059000000000000E+00   0.1403820000000000E+00
   0.3643000000000000E+00   0.5986840000000000E+00
   0.1285000000000000E+00   0.3953890000000000E+00
 s  10 1.00
   0.8236000000000000E+04   0.0000000000000000E+00
   0.1235000000000000E+04   0.0000000000000000E+00
   0.2808000000000000E+03   0.0000000000000000E+00
   0.7927000000000000E+02   0.0000000000000000E+00
   0.2559000000000000E+02   0.0000000000000000E+00
   0.8997000000000000E+01   0.0000000000000000E+00
   0.3319000000000000E+01   0.0000000000000000E+00
   0.9059000000000000E+00   0.1000000000000000E+01
   0.3643000000000000E+00   0.0000000000000000E+00
   0.1285000000000000E+00   0.0000000000000000E+00
 s  10 1.00
   0.8236000000000000E+04   0.0000000000000000E+00
   0.1235000000000000E+04   0.0000000000000000E+00
   0.2808000000000000E+03   0.0000000000000000E+00
   0.7927000000000000E+02   0.0000000000000000E+00
   0.2559000000000000E+02   0.0000000000000000E+00
   0.8997000000000000E+01   0.0000000000000000E+00
   0.3319000000000000E+01   0.0000000000000000E+00
   0.9059000000000000E+00   0.0000000000000000E+00
   0.3643000000000000E+00   0.0000000000000000E+00
   0.1285000000000000E+00   0.1000000000000000E+01
 p   5 1.00
   0.1871000000000000E+02   0.1403100000000000E-01
   0.4133000000000000E+01   0.8686600000000000E-01
   0.1200000000000000E+01   0.2902160000000000E+00
   0.3827000000000000E+00   0.5010080000000000E+00
   0.1209000000000000E+00   0.3434060000000000E+00
 p   5 1.00
   0.1871000000000000E+02   0.0000000000000000E+00
   0.4133000000000000E+01   0.0000000000000000E+00
   0.1200000000000000E+01   0.0000000000000000E+00
   0.3827000000000000E+00   0.1000000000000000E+01
   0.1209000000000000E+00   0.0000000000000000E+00
 p   5 1.00
   0.1871000000000000E+02   0.0000000000000000E+00
   0.4133000000000000E+01   0.0000000000000000E+00
   0.1200000000000000E+01   0.0000000000000000E+00
   0.3827000000000000E+00   0.0000000000000000E+00
   0.1209000000000000E+00   0.1000000000000000E+01
 d   2 1.00
   0.1097000000000000E+01   0.1000000000000000E+01
   0.3180000000000000E+00   0.0000000000000000E+00
 d   2 1.00
   0.1097000000000000E+01   0.0000000000000000E+00
   0.3180000000000000E+00   0.1000000000000000E+01
 f   1 1.00
   0.7610000000000000E+00   0.1000000000000000E+01

    6 0
 s   5 1.00
   0.3387000000000000E+02   0.6068000000000000E-02
   0.5095000000000000E+01   0.4530800000000000E-01
   0.1159000000000000E+01   0.2028220000000000E+00
   0.3258000000000000E+00   0.5039030000000000E+00
   0.1027000000000000E+00   0.3834210000000000E+00
 s   5 1.00
   0.3387000000000000E+02   0.0000000000000000E+00
   0.5095000000000000E+01   0.0000000000000000E+00
   0.1159000000000000E+01   0.0000000000000000E+00
   0.3258000000000000E+00   0.1000000000000000E+01
   0.1027000000000000E+00   0.0000000000000000E+00
 s   5 1.00
   0.3387000000000000E+02   0.0000000000000000E+00
   0.5095000000000000E+01   0.0000000000000000E+00
   0.1159000000000000E+01   0.0000000000000000E+00
   0.3258000000000000E+00   0.0000000000000000E+00
   0.1027000000000000E+00   0.1000000000000000E+01
 p   2 1.00
   0.1407000000000000E+01   0.1000000000000000E+01
   0.3880000000000000E+00   0.0000000000000000E+00
 p   2 1.00
   0.1407000000000000E+01   0.0000000000000000E+00
   0.3880000000000000E+00   0.1000000000000000E+01
 d   1 1.00
   0.1057000000000000E+01   0.1000000000000000E+01

[SCFCONV]
scf-first  1  THROUGH  12
    -2723.8526010158
    -2724.3510085195
    -2724.3934285657
    -2724.3992301767
    -2724.4001953065
    -2724.4003015916
    -2724.4003116856
    -2724.4003141726
    -2724.4003144196
    -2724.4003144620
    -2724.4003144634
    -2724.4003144634
[TITLE]
*** Dalton interface to Molden, wave function type : HF            14Apr25   14:
[5D7F]
[9G]
[MO]
Sym= A1
Ene= -490.0780
Spin= Alpha
Occup=  2.0000
    1  -0.1000000212332118E+001
    2  -0.1234150915734730E-005
    3  -0.4893605966705918E-005
    4  -0.7542670526907933E-005
    5   0.3978124052325681E-005
    6   0.1484775103422100E-004
    7   0.0000000000000000E+000
    8   0.0000000000000000E+000
    9  -0.5787985327478492E-005
   10   0.0000000000000000E+000
   11   0.0000000000000000E+000
   12   0.3530270213762536E-005
   13   0.0000000000000000E+000
   14   0.0000000000000000E+000
   15   0.2463288172161556E-005
   16   0.0000000000000000E+000
   17   0.0000000000000000E+000
   18  -0.2873382766715987E-005
   19   0.0000000000000000E+000
   20   0.0000000000000000E+000
   21   0.3419401336189076E-005
   22  -0.7560218600652289E-006
   23   0.0000000000000000E+000
   24   0.0000000000000000E+000
   25   0.6588207616277895E-019
   26   0.0000000000000000E+000
   27   0.3633934732242262E-006
   28   0.0000000000000000E+000
   29   0.0000000000000000E+000
   30  -0.9847757526282403E-019
   31   0.0000000000000000E+000
   32   0.1247251942929910E-006
   33   0.0000000000000000E+000
   34   0.0000000000000000E+000
   35   0.1421242702702449E-018
   36   0.0000000000000000E+000
   37  -0.1703754673536628E-006
   38   0.0000000000000000E+000
   39   0.0000000000000000E+000
   40   0.2026832664049931E-019
   41   0.0000000000000000E+000
   42   0.0000000000000000E+000
   43   0.0000000000000000E+000
   44   0.8003280821022814E-006
   45   0.2592105535195636E-005
   46  -0.7323396413528137E-006
   47   0.7629936233687647E-004
   48   0.0000000000000000E+000
   49   0.0000000000000000E+000
   50  -0.4363510329434552E-006
   51   0.0000000000000000E+000
   52   0.0000000000000000E+000
   53   0.5124264441564433E-005
   54   0.0000000000000000E+000
   55   0.0000000000000000E+000
   56   0.3758691048551804E-004
   57   0.3768944967448198E-006
   58   0.0000000000000000E+000
   59   0.0000000000000000E+000
   60   0.3355167426006187E-019
   61   0.0000000000000000E+000
   62   0.3247364172912222E-005
   63   0.0000000000000000E+000
   64   0.0000000000000000E+000
   65  -0.9813628045799341E-019
   66   0.0000000000000000E+000
   67   0.6011972627778768E-006
   68   0.0000000000000000E+000
   69   0.0000000000000000E+000
   70  -0.2095352950400617E-019
   71   0.0000000000000000E+000
   72   0.0000000000000000E+000
   73   0.0000000000000000E+000
   74  -0.1393665381532466E-005
   75  -0.4773534453822076E-005
   76  -0.3902208329380655E-007
   77  -0.3014386890782392E-004
   78   0.0000000000000000E+000
   79   0.0000000000000000E+000
   80  -0.4278817520174008E-006
   81   0.0000000000000000E+000
   82   0.0000000000000000E+000
   83   0.7443819825000074E-005
   84   0.0000000000000000E+000
   85   0.0000000000000000E+000
   86   0.6450820737655535E-004
   87  -0.3529025351121973E-006
   88   0.0000000000000000E+000
   89   0.0000000000000000E+000
   90  -0.8590248554419411E-020
   91   0.0000000000000000E+000
   92  -0.1809332317547805E-006
   93   0.0000000000000000E+000
   94   0.0000000000000000E+000
   95   0.3887869407967010E-019
   96   0.0000000000000000E+000
   97   0.5275289996640531E-006
   98   0.0000000000000000E+000
   99   0.0000000000000000E+000
  100  -0.2185073648622170E-019
  101   0.0000000000000000E+000
  102   0.0000000000000000E+000
  103   0.0000000000000000E+000
  104   0.8913158711395576E-006
  105   0.3013512121150834E-005
  106   0.3965551941380694E-006
  107  -0.2295322136477030E-004
  108   0.0000000000000000E+000
  109   0.0000000000000000E+000
  110  -0.2368485974473131E-006
  111   0.0000000000000000E+000
  112   0.0000000000000000E+000
  113   0.1935698457706838E-005
  114   0.0000000000000000E+000
  115   0.0000000000000000E+000
  116   0.4122461795397083E-004
  117   0.7710717184994968E-007
  118   0.0000000000000000E+000
  119   0.0000000000000000E+000
  120   0.1489854387657910E-020
  121   0.0000000000000000E+000
  122  -0.3054462898026562E-005
  123   0.0000000000000000E+000
  124   0.0000000000000000E+000
  125  -0.1236123563792277E-019
  126   0.0000000000000000E+000
  127   0.2615931797848301E-006
  128   0.0000000000000000E+000