[Molden Format]
[Atoms] AU
O          1     8         0.0000000000         0.0000000000         2.1969955929
C_1_1      2     6         0.0000000000         2.0635809285         0.6589474998
C_1_2      3     6         0.0000000000        -2.0635809285         0.6589474998
C_2_1      4     6         0.0000000000         1.3547446590        -1.8322784508
C_2_2      5     6         0.0000000000        -1.3547446590        -1.8322784508
H_1_1      6     1         0.0000000000         3.8688362957         1.5947398769
H_1_2      7     1         0.0000000000        -3.8688362957         1.5947398769
H_2_1      8     1         0.0000000000         2.5528310223        -3.4563090826
H_2_2      9     1         0.0000000000        -2.5528310223        -3.4563090826
[GTO]
    1 0
 s  11 1.00
   0.8588500000000000E+04   0.1895150000000000E-02
   0.1297230000000000E+04   0.1438590000000000E-01
   0.2992960000000000E+03   0.7073200000000000E-01
   0.8737710000000000E+02   0.2400010000000000E+00
   0.2567890000000000E+02   0.5947970000000000E+00
   0.3740040000000000E+01   0.2808020000000000E+00
   0.4211750000000000E+02   0.0000000000000000E+00
   0.9628370000000000E+01   0.0000000000000000E+00
   0.2853320000000000E+01   0.0000000000000000E+00
   0.9056610000000000E+00   0.0000000000000000E+00
   0.2556110000000000E+00   0.0000000000000000E+00
 s  11 1.00
   0.8588500000000000E+04   0.0000000000000000E+00
   0.1297230000000000E+04   0.0000000000000000E+00
   0.2992960000000000E+03   0.0000000000000000E+00
   0.8737710000000000E+02   0.0000000000000000E+00
   0.2567890000000000E+02   0.0000000000000000E+00
   0.3740040000000000E+01   0.0000000000000000E+00
   0.4211750000000000E+02   0.1138890000000000E+00
   0.9628370000000000E+01   0.9208110000000000E+00
   0.2853320000000000E+01  -0.3274470000000000E-02
   0.9056610000000000E+00   0.0000000000000000E+00
   0.2556110000000000E+00   0.0000000000000000E+00
 s  11 1.00
   0.8588500000000000E+04   0.0000000000000000E+00
   0.1297230000000000E+04   0.0000000000000000E+00
   0.2992960000000000E+03   0.0000000000000000E+00
   0.8737710000000000E+02   0.0000000000000000E+00
   0.2567890000000000E+02   0.0000000000000000E+00
   0.3740040000000000E+01   0.0000000000000000E+00
   0.4211750000000000E+02   0.0000000000000000E+00
   0.9628370000000000E+01   0.0000000000000000E+00
   0.2853320000000000E+01   0.0000000000000000E+00
   0.9056610000000000E+00   0.1000000000000000E+01
   0.2556110000000000E+00   0.0000000000000000E+00
 s  11 1.00
   0.8588500000000000E+04   0.0000000000000000E+00
   0.1297230000000000E+04   0.0000000000000000E+00
   0.2992960000000000E+03   0.0000000000000000E+00
   0.8737710000000000E+02   0.0000000000000000E+00
   0.2567890000000000E+02   0.0000000000000000E+00
   0.3740040000000000E+01   0.0000000000000000E+00
   0.4211750000000000E+02   0.0000000000000000E+00
   0.9628370000000000E+01   0.0000000000000000E+00
   0.2853320000000000E+01   0.0000000000000000E+00
   0.9056610000000000E+00   0.0000000000000000E+00
   0.2556110000000000E+00   0.1000000000000000E+01
 p   5 1.00
   0.4211750000000000E+02   0.3651140000000000E-01
   0.9628370000000000E+01   0.2371530000000000E+00
   0.2853320000000000E+01   0.8197020000000000E+00
   0.9056610000000000E+00   0.0000000000000000E+00
   0.2556110000000000E+00   0.0000000000000000E+00
 p   5 1.00
   0.4211750000000000E+02   0.0000000000000000E+00
   0.9628370000000000E+01   0.0000000000000000E+00
   0.2853320000000000E+01   0.0000000000000000E+00
   0.9056610000000000E+00   0.1000000000000000E+01
   0.2556110000000000E+00   0.0000000000000000E+00
 p   5 1.00
   0.4211750000000000E+02   0.0000000000000000E+00
   0.9628370000000000E+01   0.0000000000000000E+00
   0.2853320000000000E+01   0.0000000000000000E+00
   0.9056610000000000E+00   0.0000000000000000E+00
   0.2556110000000000E+00   0.1000000000000000E+01

    2 0
 s  11 1.00
   0.4563240000000000E+04   0.1966650000000000E-02
   0.6820240000000000E+03   0.1523060000000000E-01
   0.1549730000000000E+03   0.7612690000000000E-01
   0.4445530000000000E+02   0.2608010000000000E+00
   0.1302900000000000E+02   0.6164620000000000E+00
   0.1827730000000000E+01   0.2210060000000000E+00
   0.2096420000000000E+02   0.0000000000000000E+00
   0.4803310000000000E+01   0.0000000000000000E+00
   0.1459330000000000E+01   0.0000000000000000E+00
   0.4834560000000000E+00   0.0000000000000000E+00
   0.1455850000000000E+00   0.0000000000000000E+00
 s  11 1.00
   0.4563240000000000E+04   0.0000000000000000E+00
   0.6820240000000000E+03   0.0000000000000000E+00
   0.1549730000000000E+03   0.0000000000000000E+00
   0.4445530000000000E+02   0.0000000000000000E+00
   0.1302900000000000E+02   0.0000000000000000E+00
   0.1827730000000000E+01   0.0000000000000000E+00
   0.2096420000000000E+02   0.1146600000000000E+00
   0.4803310000000000E+01   0.9199990000000000E+00
   0.1459330000000000E+01  -0.3030680000000000E-02
   0.4834560000000000E+00   0.0000000000000000E+00
   0.1455850000000000E+00   0.0000000000000000E+00
 s  11 1.00
   0.4563240000000000E+04   0.0000000000000000E+00
   0.6820240000000000E+03   0.0000000000000000E+00
   0.1549730000000000E+03   0.0000000000000000E+00
   0.4445530000000000E+02   0.0000000000000000E+00
   0.1302900000000000E+02   0.0000000000000000E+00
   0.1827730000000000E+01   0.0000000000000000E+00
   0.2096420000000000E+02   0.0000000000000000E+00
   0.4803310000000000E+01   0.0000000000000000E+00
   0.1459330000000000E+01   0.0000000000000000E+00
   0.4834560000000000E+00   0.1000000000000000E+01
   0.1455850000000000E+00   0.0000000000000000E+00
 s  11 1.00
   0.4563240000000000E+04   0.0000000000000000E+00
   0.6820240000000000E+03   0.0000000000000000E+00
   0.1549730000000000E+03   0.0000000000000000E+00
   0.4445530000000000E+02   0.0000000000000000E+00
   0.1302900000000000E+02   0.0000000000000000E+00
   0.1827730000000000E+01   0.0000000000000000E+00
   0.2096420000000000E+02   0.0000000000000000E+00
   0.4803310000000000E+01   0.0000000000000000E+00
   0.1459330000000000E+01   0.0000000000000000E+00
   0.4834560000000000E+00   0.0000000000000000E+00
   0.1455850000000000E+00   0.1000000000000000E+01
 p   5 1.00
   0.2096420000000000E+02   0.4024870000000000E-01
   0.4803310000000000E+01   0.2375940000000000E+00
   0.1459330000000000E+01   0.8158540000000000E+00
   0.4834560000000000E+00   0.0000000000000000E+00
   0.1455850000000000E+00   0.0000000000000000E+00
 p   5 1.00
   0.2096420000000000E+02   0.0000000000000000E+00
   0.4803310000000000E+01   0.0000000000000000E+00
   0.1459330000000000E+01   0.0000000000000000E+00
   0.4834560000000000E+00   0.1000000000000000E+01
   0.1455850000000000E+00   0.0000000000000000E+00
 p   5 1.00
   0.2096420000000000E+02   0.0000000000000000E+00
   0.4803310000000000E+01   0.0000000000000000E+00
   0.1459330000000000E+01   0.0000000000000000E+00
   0.4834560000000000E+00   0.0000000000000000E+00
   0.1455850000000000E+00   0.1000000000000000E+01

    3 0
 s  11 1.00
   0.4563240000000000E+04   0.1966650000000000E-02
   0.6820240000000000E+03   0.1523060000000000E-01
   0.1549730000000000E+03   0.7612690000000000E-01
   0.4445530000000000E+02   0.2608010000000000E+00
   0.1302900000000000E+02   0.6164620000000000E+00
   0.1827730000000000E+01   0.2210060000000000E+00
   0.2096420000000000E+02   0.0000000000000000E+00
   0.4803310000000000E+01   0.0000000000000000E+00
   0.1459330000000000E+01   0.0000000000000000E+00
   0.4834560000000000E+00   0.0000000000000000E+00
   0.1455850000000000E+00   0.0000000000000000E+00
 s  11 1.00
   0.4563240000000000E+04   0.0000000000000000E+00
   0.6820240000000000E+03   0.0000000000000000E+00
   0.1549730000000000E+03   0.0000000000000000E+00
   0.4445530000000000E+02   0.0000000000000000E+00
   0.1302900000000000E+02   0.0000000000000000E+00
   0.1827730000000000E+01   0.0000000000000000E+00
   0.2096420000000000E+02   0.1146600000000000E+00
   0.4803310000000000E+01   0.9199990000000000E+00
   0.1459330000000000E+01  -0.3030680000000000E-02
   0.4834560000000000E+00   0.0000000000000000E+00
   0.1455850000000000E+00   0.0000000000000000E+00
 s  11 1.00
   0.4563240000000000E+04   0.0000000000000000E+00
   0.6820240000000000E+03   0.0000000000000000E+00
   0.1549730000000000E+03   0.0000000000000000E+00
   0.4445530000000000E+02   0.0000000000000000E+00
   0.1302900000000000E+02   0.0000000000000000E+00
   0.1827730000000000E+01   0.0000000000000000E+00
   0.2096420000000000E+02   0.0000000000000000E+00
   0.4803310000000000E+01   0.0000000000000000E+00
   0.1459330000000000E+01   0.0000000000000000E+00
   0.4834560000000000E+00   0.1000000000000000E+01
   0.1455850000000000E+00   0.0000000000000000E+00
 s  11 1.00
   0.4563240000000000E+04   0.0000000000000000E+00
   0.6820240000000000E+03   0.0000000000000000E+00
   0.1549730000000000E+03   0.0000000000000000E+00
   0.4445530000000000E+02   0.0000000000000000E+00
   0.1302900000000000E+02   0.0000000000000000E+00
   0.1827730000000000E+01   0.0000000000000000E+00
   0.2096420000000000E+02   0.0000000000000000E+00
   0.4803310000000000E+01   0.0000000000000000E+00
   0.1459330000000000E+01   0.0000000000000000E+00
   0.4834560000000000E+00   0.0000000000000000E+00
   0.1455850000000000E+00   0.1000000000000000E+01
 p   5 1.00
   0.2096420000000000E+02   0.4024870000000000E-01
   0.4803310000000000E+01   0.2375940000000000E+00
   0.1459330000000000E+01   0.8158540000000000E+00
   0.4834560000000000E+00   0.0000000000000000E+00
   0.1455850000000000E+00   0.0000000000000000E+00
 p   5 1.00
   0.2096420000000000E+02   0.0000000000000000E+00
   0.4803310000000000E+01   0.0000000000000000E+00
   0.1459330000000000E+01   0.0000000000000000E+00
   0.4834560000000000E+00   0.1000000000000000E+01
   0.1455850000000000E+00   0.0000000000000000E+00
 p   5 1.00
   0.2096420000000000E+02   0.0000000000000000E+00
   0.4803310000000000E+01   0.0000000000000000E+00
   0.1459330000000000E+01   0.0000000000000000E+00
   0.4834560000000000E+00   0.0000000000000000E+00
   0.1455850000000000E+00   0.1000000000000000E+01

    4 0
 s  11 1.00
   0.4563240000000000E+04   0.1966650000000000E-02
   0.6820240000000000E+03   0.1523060000000000E-01
   0.1549730000000000E+03   0.7612690000000000E-01
   0.4445530000000000E+02   0.2608010000000000E+00
   0.1302900000000000E+02   0.6164620000000000E+00
   0.1827730000000000E+01   0.2210060000000000E+00
   0.2096420000000000E+02   0.0000000000000000E+00
   0.4803310000000000E+01   0.0000000000000000E+00
   0.1459330000000000E+01   0.0000000000000000E+00
   0.4834560000000000E+00   0.0000000000000000E+00
   0.1455850000000000E+00   0.0000000000000000E+00
 s  11 1.00
   0.4563240000000000E+04   0.0000000000000000E+00
   0.6820240000000000E+03   0.0000000000000000E+00
   0.1549730000000000E+03   0.0000000000000000E+00
   0.4445530000000000E+02   0.0000000000000000E+00
   0.1302900000000000E+02   0.0000000000000000E+00
   0.1827730000000000E+01   0.0000000000000000E+00
   0.2096420000000000E+02   0.1146600000000000E+00
   0.4803310000000000E+01   0.9199990000000000E+00
   0.1459330000000000E+01  -0.3030680000000000E-02
   0.4834560000000000E+00   0.0000000000000000E+00
   0.1455850000000000E+00   0.0000000000000000E+00
 s  11 1.00
   0.4563240000000000E+04   0.0000000000000000E+00
   0.6820240000000000E+03   0.0000000000000000E+00
   0.1549730000000000E+03   0.0000000000000000E+00
   0.4445530000000000E+02   0.0000000000000000E+00
   0.1302900000000000E+02   0.0000000000000000E+00
   0.1827730000000000E+01   0.0000000000000000E+00
   0.2096420000000000E+02   0.0000000000000000E+00
   0.4803310000000000E+01   0.0000000000000000E+00
   0.1459330000000000E+01   0.0000000000000000E+00
   0.4834560000000000E+00   0.1000000000000000E+01
   0.1455850000000000E+00   0.0000000000000000E+00
 s  11 1.00
   0.4563240000000000E+04   0.0000000000000000E+00
   0.6820240000000000E+03   0.0000000000000000E+00
   0.1549730000000000E+03   0.0000000000000000E+00
   0.4445530000000000E+02   0.0000000000000000E+00
   0.1302900000000000E+02   0.0000000000000000E+00
   0.1827730000000000E+01   0.0000000000000000E+00
   0.2096420000000000E+02   0.0000000000000000E+00
   0.4803310000000000E+01   0.0000000000000000E+00
   0.1459330000000000E+01   0.0000000000000000E+00
   0.4834560000000000E+00   0.0000000000000000E+00
   0.1455850000000000E+00   0.1000000000000000E+01
 p   5 1.00
   0.2096420000000000E+02   0.4024870000000000E-01
   0.4803310000000000E+01   0.2375940000000000E+00
   0.1459330000000000E+01   0.8158540000000000E+00
   0.4834560000000000E+00   0.0000000000000000E+00
   0.1455850000000000E+00   0.0000000000000000E+00
 p   5 1.00
   0.2096420000000000E+02   0.0000000000000000E+00
   0.4803310000000000E+01   0.0000000000000000E+00
   0.1459330000000000E+01   0.0000000000000000E+00
   0.4834560000000000E+00   0.1000000000000000E+01
   0.1455850000000000E+00   0.0000000000000000E+00
 p   5 1.00
   0.2096420000000000E+02   0.0000000000000000E+00
   0.4803310000000000E+01   0.0000000000000000E+00
   0.1459330000000000E+01   0.0000000000000000E+00
   0.4834560000000000E+00   0.0000000000000000E+00
   0.1455850000000000E+00   0.1000000000000000E+01

    5 0
 s  11 1.00
   0.4563240000000000E+04   0.1966650000000000E-02
   0.6820240000000000E+03   0.1523060000000000E-01
   0.1549730000000000E+03   0.7612690000000000E-01
   0.4445530000000000E+02   0.2608010000000000E+00
   0.1302900000000000E+02   0.6164620000000000E+00
   0.1827730000000000E+01   0.2210060000000000E+00
   0.2096420000000000E+02   0.0000000000000000E+00
   0.4803310000000000E+01   0.0000000000000000E+00
   0.1459330000000000E+01   0.0000000000000000E+00
   0.4834560000000000E+00   0.0000000000000000E+00
   0.1455850000000000E+00   0.0000000000000000E+00
 s  11 1.00
   0.4563240000000000E+04   0.0000000000000000E+00
   0.6820240000000000E+03   0.0000000000000000E+00
   0.1549730000000000E+03   0.0000000000000000E+00
   0.4445530000000000E+02   0.0000000000000000E+00
   0.1302900000000000E+02   0.0000000000000000E+00
   0.1827730000000000E+01   0.0000000000000000E+00
   0.2096420000000000E+02   0.1146600000000000E+00
   0.4803310000000000E+01   0.9199990000000000E+00
   0.1459330000000000E+01  -0.3030680000000000E-02
   0.4834560000000000E+00   0.0000000000000000E+00
   0.1455850000000000E+00   0.0000000000000000E+00
 s  11 1.00
   0.4563240000000000E+04   0.0000000000000000E+00
   0.6820240000000000E+03   0.0000000000000000E+00
   0.1549730000000000E+03   0.0000000000000000E+00
   0.4445530000000000E+02   0.0000000000000000E+00
   0.1302900000000000E+02   0.0000000000000000E+00
   0.1827730000000000E+01   0.0000000000000000E+00
   0.2096420000000000E+02   0.0000000000000000E+00
   0.4803310000000000E+01   0.0000000000000000E+00
   0.1459330000000000E+01   0.0000000000000000E+00
   0.4834560000000000E+00   0.1000000000000000E+01
   0.1455850000000000E+00   0.0000000000000000E+00
 s  11 1.00
   0.4563240000000000E+04   0.0000000000000000E+00
   0.6820240000000000E+03   0.0000000000000000E+00
   0.1549730000000000E+03   0.0000000000000000E+00
   0.4445530000000000E+02   0.0000000000000000E+00
   0.1302900000000000E+02   0.0000000000000000E+00
   0.1827730000000000E+01   0.0000000000000000E+00
   0.2096420000000000E+02   0.0000000000000000E+00
   0.4803310000000000E+01   0.0000000000000000E+00
   0.1459330000000000E+01   0.0000000000000000E+00
   0.4834560000000000E+00   0.0000000000000000E+00
   0.1455850000000000E+00   0.1000000000000000E+01
 p   5 1.00
   0.2096420000000000E+02   0.4024870000000000E-01
   0.4803310000000000E+01   0.2375940000000000E+00
   0.1459330000000000E+01   0.8158540000000000E+00
   0.4834560000000000E+00   0.0000000000000000E+00
   0.1455850000000000E+00   0.0000000000000000E+00
 p   5 1.00
   0.2096420000000000E+02   0.0000000000000000E+00
   0.4803310000000000E+01   0.0000000000000000E+00
   0.1459330000000000E+01   0.0000000000000000E+00
   0.4834560000000000E+00   0.1000000000000000E+01
   0.1455850000000000E+00   0.0000000000000000E+00
 p   5 1.00
   0.2096420000000000E+02   0.0000000000000000E+00
   0.4803310000000000E+01   0.0000000000000000E+00
   0.1459330000000000E+01   0.0000000000000000E+00
   0.4834560000000000E+00   0.0000000000000000E+00
   0.1455850000000000E+00   0.1000000000000000E+01

    6 0
 s   5 1.00
   0.3386500000000000E+02   0.2549380000000000E-01
   0.5094790000000000E+01   0.1903730000000000E+00
   0.1158790000000000E+01   0.8521609999999999E+00
   0.3258400000000000E+00   0.0000000000000000E+00
   0.1027410000000000E+00   0.0000000000000000E+00
 s   5 1.00
   0.3386500000000000E+02   0.0000000000000000E+00
   0.5094790000000000E+01   0.0000000000000000E+00
   0.1158790000000000E+01   0.0000000000000000E+00
   0.3258400000000000E+00   0.1000000000000000E+01
   0.1027410000000000E+00   0.0000000000000000E+00
 s   5 1.00
   0.3386500000000000E+02   0.0000000000000000E+00
   0.5094790000000000E+01   0.0000000000000000E+00
   0.1158790000000000E+01   0.0000000000000000E+00
   0.3258400000000000E+00   0.0000000000000000E+00
   0.1027410000000000E+00   0.1000000000000000E+01

    7 0
 s   5 1.00
   0.3386500000000000E+02   0.2549380000000000E-01
   0.5094790000000000E+01   0.1903730000000000E+00
   0.1158790000000000E+01   0.8521609999999999E+00
   0.3258400000000000E+00   0.0000000000000000E+00
   0.1027410000000000E+00   0.0000000000000000E+00
 s   5 1.00
   0.3386500000000000E+02   0.0000000000000000E+00
   0.5094790000000000E+01   0.0000000000000000E+00
   0.1158790000000000E+01   0.0000000000000000E+00
   0.3258400000000000E+00   0.1000000000000000E+01
   0.1027410000000000E+00   0.0000000000000000E+00
 s   5 1.00
   0.3386500000000000E+02   0.0000000000000000E+00
   0.5094790000000000E+01   0.0000000000000000E+00
   0.1158790000000000E+01   0.0000000000000000E+00
   0.3258400000000000E+00   0.0000000000000000E+00
   0.1027410000000000E+00   0.1000000000000000E+01

    8 0
 s   5 1.00
   0.3386500000000000E+02   0.2549380000000000E-01
   0.5094790000000000E+01   0.1903730000000000E+00
   0.1158790000000000E+01   0.8521609999999999E+00
   0.3258400000000000E+00   0.0000000000000000E+00
   0.1027410000000000E+00   0.0000000000000000E+00
 s   5 1.00
   0.3386500000000000E+02   0.0000000000000000E+00
   0.5094790000000000E+01   0.0000000000000000E+00
   0.1158790000000000E+01   0.0000000000000000E+00
   0.3258400000000000E+00   0.1000000000000000E+01
   0.1027410000000000E+00   0.0000000000000000E+00
 s   5 1.00
   0.3386500000000000E+02   0.0000000000000000E+00
   0.5094790000000000E+01   0.0000000000000000E+00
   0.1158790000000000E+01   0.0000000000000000E+00
   0.3258400000000000E+00   0.0000000000000000E+00
   0.1027410000000000E+00   0.1000000000000000E+01

    9 0
 s   5 1.00
   0.3386500000000000E+02   0.2549380000000000E-01
   0.5094790000000000E+01   0.1903730000000000E+00
   0.1158790000000000E+01   0.8521609999999999E+00
   0.3258400000000000E+00   0.0000000000000000E+00
   0.1027410000000000E+00   0.0000000000000000E+00
 s   5 1.00
   0.3386500000000000E+02   0.0000000000000000E+00
   0.5094790000000000E+01   0.0000000000000000E+00
   0.1158790000000000E+01   0.0000000000000000E+00
   0.3258400000000000E+00   0.1000000000000000E+01
   0.1027410000000000E+00   0.0000000000000000E+00
 s   5 1.00
   0.3386500000000000E+02   0.0000000000000000E+00
   0.5094790000000000E+01   0.0000000000000000E+00
   0.1158790000000000E+01   0.0000000000000000E+00
   0.3258400000000000E+00   0.0000000000000000E+00
   0.1027410000000000E+00   0.1000000000000000E+01

[SCFCONV]
scf-first  1  THROUGH  11
     -227.8268275531
     -228.5104693444
     -228.5610373018
     -228.5714308536
     -228.5725095897
     -228.5726112209
     -228.5726204329
     -228.5726217596
     -228.5726220402
     -228.5726220558
     -228.5726220562
[TITLE]
*** Dalton interface to Molden, wave function type : HF             5Jun25   21:
[5D7F]
[9G]
[MO]
Sym= A1
Ene=  -20.6315
Spin= Alpha
Occup=  2.0000
    1   0.5514810144299283E+000
    2   0.4716595654630448E+000
    3   0.5538976723248486E-002
    4  -0.6978115880041427E-003
    5   0.0000000000000000E+000
    6   0.0000000000000000E+000
    7  -0.2391807669821087E-002
    8   0.0000000000000000E+000
    9   0.0000000000000000E+000
   10   0.8728322178155202E-003
   11   0.0000000000000000E+000
   12   0.0000000000000000E+000
   13  -0.1987975796397319E-003
   14  -0.1843668350092490E-005
   15  -0.3531300402192010E-004
   16   0.1277398215290944E-003
   17   0.1873377618804809E-003
   18   0.0000000000000000E+000
   19  -0.4378153157914501E-004
   20   0.7292254500168689E-004
   21   0.0000000000000000E+000
   22  -0.1376001467426660E-003
   23  -0.8743918467597727E-005
   24   0.0000000000000000E+000
   25  -0.2106725236731690E-003
   26   0.1256695427636345E-003
   27  -0.1843668350092490E-005
   28  -0.3531300402192010E-004
   29   0.1277398215290944E-003
   30   0.1873377618804809E-003
   31   0.0000000000000000E+000
   32   0.4378153157914501E-004
   33   0.7292254500168689E-004
   34   0.0000000000000000E+000
   35   0.1376001467426660E-003
   36  -0.8743918467597727E-005
   37   0.0000000000000000E+000
   38   0.2106725236731690E-003
   39   0.1256695427636345E-003
   40  -0.8786281703489943E-008
   41   0.8073847113370009E-005
   42  -0.5849922533471464E-005
   43   0.4185046598518848E-004
   44   0.0000000000000000E+000
   45   0.1880282571700906E-005
   46   0.1244498858874458E-004
   47   0.0000000000000000E+000
   48  -0.2110919650008904E-004
   49  -0.8463437962985039E-004
   50   0.0000000000000000E+000
   51   0.1891793548562445E-003
   52  -0.1051877447409004E-003
   53  -0.8786281703489943E-008
   54   0.8073847113370009E-005
   55  -0.5849922533471464E-005
   56   0.4185046598518848E-004
   57   0.0000000000000000E+000
   58  -0.1880282571700906E-005
   59   0.1244498858874458E-004
   60   0.0000000000000000E+000
   61   0.2110919650008904E-004
   62  -0.8463437962985039E-004
   63   0.0000000000000000E+000
   64  -0.1891793548562445E-003
   65  -0.1051877447409004E-003
   66   0.7991934728506281E-006
   67   0.1797500711979745E-004
   68   0.3584107864237791E-004
   69   0.7991934728506281E-006
   70   0.1797500711979745E-004
   71   0.3584107864237791E-004
   72   0.7771854380415939E-005
   73  -0.9863827874417303E-004
   74  -0.4101721092634032E-004
   75   0.7771854380415939E-005
   76  -0.9863827874417303E-004
   77  -0.4101721092634032E-004
Sym= A1
Ene=  -11.3026
Spin= Alpha
Occup=  2.0000
    1  -0.1253499075951278E-003
    2  -0.2260286648063612E-003
    3   0.6277397268100124E-003
    4  -0.1129423854721521E-004
    5   0.0000000000000000E+000
    6   0.0000000000000000E+000
    7  -0.1562811863495161E-003
    8   0.0000000000000000E+000
    9   0.0000000000000000E+000
   10  -0.3837258561612318E-003
   11   0.0000000000000000E+000
   12   0.0000000000000000E+000
   13  -0.3639151078327642E-004
   14   0.3983305282078257E+000
   15   0.3299171127324978E+000
   16   0.2929494321403204E-002
   17  -0.8726118632508282E-003
   18   0.0000000000000000E+000
   19  -0.9010014004773173E-003
   20   0.5949613133909800E-003
   21   0.0000000000000000E+000
   22   0.3924302010078930E-003
   23  -0.3707281663480683E-003
   24   0.0000000000000000E+000
   25  -0.1574446507587601E-003
   26   0.3320028535240748E-003
   27   0.3983305282078257E+000
   28   0.3299171127324978E+000
   29   0.2929494321403204E-002
   30  -0.8726118632508282E-003
   31   0.0000000000000000E+000
   32   0.9010014004773173E-003
   33   0.5949613133909800E-003
   34   0.0000000000000000E+000
   35  -0.3924302010078930E-003
   36  -0.3707281663480683E-003
   37   0.0000000000000000E+000
   38   0.1574446507587601E-003
   39   0.3320028535240748E-003
   40   0.4782369748779978E-002
   41   0.3907375871837455E-002
   42   0.2369875953173755E-003
   43   0.4458084975242228E-003
   44   0.0000000000000000E+000
   45   0.4842128110316831E-004
   46   0.1344212796767849E-003
   47   0.0000000000000000E+000
   48   0.6834219832030900E-004
   49   0.1708370665873273E-003
   50   0.0000000000000000E+000
   51   0.6140216584016749E-004
   52   0.1620686965352299E-003
   53   0.4782369748779978E-002
   54   0.3907375871837455E-002
   55   0.2369875953173755E-003
   56   0.4458084975242228E-003
   57   0.0000000000000000E+000
   58  -0.4842128110316831E-004
   59   0.1344212796767849E-003
   60   0.0000000000000000E+000
   61  -0.6834219832030900E-004
   62   0.1708370665873273E-003
   63   0.0000000000000000E+000
   64  -0.6140216584016749E-004
   65   0.1620686965352299E-003
   66   0.2723170940217791E-003
   67   0.4470863259702895E-004
   68   0.2222316224830520E-003
   69   0.2723170940217791E-003
   70   0.4470863259702895E-004
   71   0.2222316224830520E-003
   72   0.8295145308172729E-005
   73  -0.4162408399310085E-004
   74   0.5726132446156926E-004
   75   0.8295145308172729E-005
   76  -0.4162408399310085E-004
   77   0.5726132446156926E-004
Sym= A1
Ene=  -11.2459
Spin= Alpha
Occup=  2.0000
    1   0.6402972194531281E-005
    2   0.2233241672378073E-005
    3   0.8801346264979967E-004
    4  -0.5885376397224251E-003
    5   0.0000000000000000E+000
    6   0.0000000000000000E+000
    7   0.8376681643625448E-005
    8   0.0000000000000000E+000
    9   0.0000000000000000E+000
   10   0.3435462160569604E-004
   11   0.0000000000000000E+000
   12   0.0000000000000000E+000
   13   0.2260001944957845E-003
   14  -0.4917896880487658E-002
   15  -0.4136182377983711E-002
   16   0.2297092975401745E-003
   17   0.7797826915918462E-003
   18   0.0000000000000000E+000
   19  -0.2490120016845355E-004
   20  -0.1738261265576208E-003
   21   0.0000000000000000E+000
   22  -0.8366249291448501E-004
   23  -0.1069427858038760E-003
   24   0.0000000000000000E+000
   25  -0.3904321705333965E-003
   26  -0.2978706870980297E-003
   27  -0.4917896880487658E-002
   28  -0.4136182377983711E-002
   29   0.2297092975401745E-003
   30   0.7797826915918462E-003
   31   0.0000000000000000E+000
   32   0.2490120016845355E-004
   33  -0.1738261265576208E-003
   34   0.0000000000000000E+000
   35   0.8366249291448501E-004
   36  -0.1069427858038760E-003
   37   0.0000000000000000E+000
   38   0.3904321705333965E-003
   39  -0.2978706870980297E-003
   40   0.3982236302231878E+000
   41   0.3297880275952838E+000
   42   0.3462747724824971E-002
   43  -0.9449799709237781E-003
   44   0.0000000000000000E+000
   45  -0.2434860196094320E-003
   46   0.2035965951380183E-003
   47   0.0000000000000000E+000
   48  -0.1886950277771829E-003
   49   0.5638710942508924E-005
   50   0.0000000000000000E+000
   51   0.1611492941789838E-003
   52  -0.4379879507677414E-003
   53   0.3982236302231878E+000
   54   0.3297880275952838E+000
   55   0.3462747724824971E-002
   56  -0.9449799709237781E-003
   57   0.0000000000000000E+000
   58   0.2434860196094320E-003
   59   0.2035965951380183E-003
   60   0.0000000000000000E+000
   61   0.1886950277771829E-003
   62   0.5638710942508924E-005
   63   0.0000000000000000E+000
   64  -0.1611492941789838E-003
   65  -0.4379879507677414E-003
   66  -0.1645152717669329E-004
   67   0.4815085493619892E-004
   68   0.9738207049056468E-004
   69  -0.1645152717669329E-004
   70   0.4815085493619892E-004
   71   0.9738207049056468E-004
   72   0.3035581887789114E-003
   73  -0.1289448845985222E-003
   74   0.9117886676266141E-004
   75   0.3035581887789114E-003
   76  -0.1289448845985222E-003
   77   0.9117886676266141E-004
Sym= A1
Ene=   -1.4773
Spin= Alpha
Occup=  2.0000
    1  -0.1039260181132853E+000
    2  -0.1736846444619215E+000
    3   0.4857322028729362E+000
    4   0.4546705103621786E+000
    5   0.0000000000000000E+000
    6   0.0000000000000000E+000
    7  -0.4472835048913276E-001
    8   0.0000000000000000E+000
    9   0.0000000000000000E+000
   10  -0.9384337116592366E-001
   11   0.0000000000000000E+000
   12   0.0000000000000000E+000
   13  -0.7015802368200467E-001
   14  -0.3780325263890084E-001
   15  -0.6243770060457795E-001
   16   0.1596699050432459E+000
   17  -0.2300053039627200E-001
   18   0.0000000000000000E+000
   19  -0.4130956245621708E-001
   20   0.1967917473228093E-001
   21   0.0000000000000000E+000
   22  -0.6067924311347892E-001
   23   0.2208112529617135E-001
   24   0.0000000000000000E+000
   25   0.4727993396739410E-001
   26  -0.5540866133180902E-003
   27  -0.3780325263890084E-001
   28  -0.6243770060457795E-001
   29   0.1596699050432459E+000
   30  -0.2300053039627200E-001
   31   0.0000000000000000E+000
   32   0.4130956245621708E-001
   33   0.1967917473228093E-001
   34   0.0000000000000000E+000
   35   0.6067924311347892E-001
   36   0.2208112529617135E-001
   37   0.0000000000000000E+000
   38  -0.4727993396739410E-001
   39  -0.5540866133180902E-003
   40  -0.1303399856330538E-001
   41  -0.2086029683316317E-001
   42   0.4968493979551462E-001
   43   0.3314590132676597E-001
   44   0.0000000000000000E+000
   45  -0.5674661926197363E-002
   46   0.1427020059809373E-001
   47   0.0000000000000000E+000
   48  -0.5374025328870336E-002
   49   0.1988833996229903E-001
   50   0.0000000000000000E+000
   51  -0.2002927599179196E-001
   52   0.2671759457784235E-001
   53  -0.1303399856330538E-001
   54  -0.2086029683316317E-001
   55   0.4968493979551462E-001
   56   0.3314590132676597E-001
   57   0.0000000000000000E+000
   58   0.5674661926197363E-002
   59   0.1427020059809373E-001
   60   0.0000000000000000E+000
   61   0.5374025328870336E-002
   62   0.1988833996229903E-001
   63   0.0000000000000000E+000
   64   0.2002927599179196E-001
   65   0.2671759457784235E-001
   66   0.1124837973047361E-001
   67   0.4313004658968808E-002
   68  -0.1151007928596662E-001
   69   0.1124837973047361E-001
   70   0.4313004658968808E-002
   71  -0.1151007928596662E-001
   72   0.1547215143301587E-002
   73   0.1044708564575311E-001
   74   0.5912812085842040E-002
   75   0.1547215143301587E-002
   76   0.1044708564575311E-001
   77   0.5912812085842040E-002
Sym= A1
Ene=   -1.0949
Spin= Alpha
Occup=  2.0000