[Molden Format]
[Atoms] AU
C_1_1      1     6         0.0000000000         1.6431168657         1.4624590481
C_1_2      2     6         0.0000000000         1.6431168657        -1.4624590481
C_2_1      3     6        -1.4229637721        -0.8216529191         1.4624590481
C_2_2      4     6        -1.4229637721        -0.8216529191        -1.4624590481
C_3_1      5     6         1.4229637721        -0.8216529191         1.4624590481
C_3_2      6     6         1.4229637721        -0.8216529191        -1.4624590481
H_1_1      7     1         0.0000000000         3.1346776961         2.8302428174
H_1_2      8     1         0.0000000000         3.1346776961        -2.8302428174
H_2_1      9     1        -2.7147805512        -1.5673388481         2.8302428174
H_2_2     10     1        -2.7147805512        -1.5673388481        -2.8302428174
H_3_1     11     1         2.7147805512        -1.5673388481         2.8302428174
H_3_2     12     1         2.7147805512        -1.5673388481        -2.8302428174
[GTO]
    1 0
 s  11 1.00
   0.4563240000000000E+04   0.1966650000000000E-02
   0.6820240000000000E+03   0.1523060000000000E-01
   0.1549730000000000E+03   0.7612690000000000E-01
   0.4445530000000000E+02   0.2608010000000000E+00
   0.1302900000000000E+02   0.6164620000000000E+00
   0.1827730000000000E+01   0.2210060000000000E+00
   0.2096420000000000E+02   0.0000000000000000E+00
   0.4803310000000000E+01   0.0000000000000000E+00
   0.1459330000000000E+01   0.0000000000000000E+00
   0.4834560000000000E+00   0.0000000000000000E+00
   0.1455850000000000E+00   0.0000000000000000E+00
 s  11 1.00
   0.4563240000000000E+04   0.0000000000000000E+00
   0.6820240000000000E+03   0.0000000000000000E+00
   0.1549730000000000E+03   0.0000000000000000E+00
   0.4445530000000000E+02   0.0000000000000000E+00
   0.1302900000000000E+02   0.0000000000000000E+00
   0.1827730000000000E+01   0.0000000000000000E+00
   0.2096420000000000E+02   0.1146600000000000E+00
   0.4803310000000000E+01   0.9199990000000000E+00
   0.1459330000000000E+01  -0.3030680000000000E-02
   0.4834560000000000E+00   0.0000000000000000E+00
   0.1455850000000000E+00   0.0000000000000000E+00
 s  11 1.00
   0.4563240000000000E+04   0.0000000000000000E+00
   0.6820240000000000E+03   0.0000000000000000E+00
   0.1549730000000000E+03   0.0000000000000000E+00
   0.4445530000000000E+02   0.0000000000000000E+00
   0.1302900000000000E+02   0.0000000000000000E+00
   0.1827730000000000E+01   0.0000000000000000E+00
   0.2096420000000000E+02   0.0000000000000000E+00
   0.4803310000000000E+01   0.0000000000000000E+00
   0.1459330000000000E+01   0.0000000000000000E+00
   0.4834560000000000E+00   0.1000000000000000E+01
   0.1455850000000000E+00   0.0000000000000000E+00
 s  11 1.00
   0.4563240000000000E+04   0.0000000000000000E+00
   0.6820240000000000E+03   0.0000000000000000E+00
   0.1549730000000000E+03   0.0000000000000000E+00
   0.4445530000000000E+02   0.0000000000000000E+00
   0.1302900000000000E+02   0.0000000000000000E+00
   0.1827730000000000E+01   0.0000000000000000E+00
   0.2096420000000000E+02   0.0000000000000000E+00
   0.4803310000000000E+01   0.0000000000000000E+00
   0.1459330000000000E+01   0.0000000000000000E+00
   0.4834560000000000E+00   0.0000000000000000E+00
   0.1455850000000000E+00   0.1000000000000000E+01
 p   5 1.00
   0.2096420000000000E+02   0.4024870000000000E-01
   0.4803310000000000E+01   0.2375940000000000E+00
   0.1459330000000000E+01   0.8158540000000000E+00
   0.4834560000000000E+00   0.0000000000000000E+00
   0.1455850000000000E+00   0.0000000000000000E+00
 p   5 1.00
   0.2096420000000000E+02   0.0000000000000000E+00
   0.4803310000000000E+01   0.0000000000000000E+00
   0.1459330000000000E+01   0.0000000000000000E+00
   0.4834560000000000E+00   0.1000000000000000E+01
   0.1455850000000000E+00   0.0000000000000000E+00
 p   5 1.00
   0.2096420000000000E+02   0.0000000000000000E+00
   0.4803310000000000E+01   0.0000000000000000E+00
   0.1459330000000000E+01   0.0000000000000000E+00
   0.4834560000000000E+00   0.0000000000000000E+00
   0.1455850000000000E+00   0.1000000000000000E+01

    2 0
 s  11 1.00
   0.4563240000000000E+04   0.1966650000000000E-02
   0.6820240000000000E+03   0.1523060000000000E-01
   0.1549730000000000E+03   0.7612690000000000E-01
   0.4445530000000000E+02   0.2608010000000000E+00
   0.1302900000000000E+02   0.6164620000000000E+00
   0.1827730000000000E+01   0.2210060000000000E+00
   0.2096420000000000E+02   0.0000000000000000E+00
   0.4803310000000000E+01   0.0000000000000000E+00
   0.1459330000000000E+01   0.0000000000000000E+00
   0.4834560000000000E+00   0.0000000000000000E+00
   0.1455850000000000E+00   0.0000000000000000E+00
 s  11 1.00
   0.4563240000000000E+04   0.0000000000000000E+00
   0.6820240000000000E+03   0.0000000000000000E+00
   0.1549730000000000E+03   0.0000000000000000E+00
   0.4445530000000000E+02   0.0000000000000000E+00
   0.1302900000000000E+02   0.0000000000000000E+00
   0.1827730000000000E+01   0.0000000000000000E+00
   0.2096420000000000E+02   0.1146600000000000E+00
   0.4803310000000000E+01   0.9199990000000000E+00
   0.1459330000000000E+01  -0.3030680000000000E-02
   0.4834560000000000E+00   0.0000000000000000E+00
   0.1455850000000000E+00   0.0000000000000000E+00
 s  11 1.00
   0.4563240000000000E+04   0.0000000000000000E+00
   0.6820240000000000E+03   0.0000000000000000E+00
   0.1549730000000000E+03   0.0000000000000000E+00
   0.4445530000000000E+02   0.0000000000000000E+00
   0.1302900000000000E+02   0.0000000000000000E+00
   0.1827730000000000E+01   0.0000000000000000E+00
   0.2096420000000000E+02   0.0000000000000000E+00
   0.4803310000000000E+01   0.0000000000000000E+00
   0.1459330000000000E+01   0.0000000000000000E+00
   0.4834560000000000E+00   0.1000000000000000E+01
   0.1455850000000000E+00   0.0000000000000000E+00
 s  11 1.00
   0.4563240000000000E+04   0.0000000000000000E+00
   0.6820240000000000E+03   0.0000000000000000E+00
   0.1549730000000000E+03   0.0000000000000000E+00
   0.4445530000000000E+02   0.0000000000000000E+00
   0.1302900000000000E+02   0.0000000000000000E+00
   0.1827730000000000E+01   0.0000000000000000E+00
   0.2096420000000000E+02   0.0000000000000000E+00
   0.4803310000000000E+01   0.0000000000000000E+00
   0.1459330000000000E+01   0.0000000000000000E+00
   0.4834560000000000E+00   0.0000000000000000E+00
   0.1455850000000000E+00   0.1000000000000000E+01
 p   5 1.00
   0.2096420000000000E+02   0.4024870000000000E-01
   0.4803310000000000E+01   0.2375940000000000E+00
   0.1459330000000000E+01   0.8158540000000000E+00
   0.4834560000000000E+00   0.0000000000000000E+00
   0.1455850000000000E+00   0.0000000000000000E+00
 p   5 1.00
   0.2096420000000000E+02   0.0000000000000000E+00
   0.4803310000000000E+01   0.0000000000000000E+00
   0.1459330000000000E+01   0.0000000000000000E+00
   0.4834560000000000E+00   0.1000000000000000E+01
   0.1455850000000000E+00   0.0000000000000000E+00
 p   5 1.00
   0.2096420000000000E+02   0.0000000000000000E+00
   0.4803310000000000E+01   0.0000000000000000E+00
   0.1459330000000000E+01   0.0000000000000000E+00
   0.4834560000000000E+00   0.0000000000000000E+00
   0.1455850000000000E+00   0.1000000000000000E+01

    3 0
 s  11 1.00
   0.4563240000000000E+04   0.1966650000000000E-02
   0.6820240000000000E+03   0.1523060000000000E-01
   0.1549730000000000E+03   0.7612690000000000E-01
   0.4445530000000000E+02   0.2608010000000000E+00
   0.1302900000000000E+02   0.6164620000000000E+00
   0.1827730000000000E+01   0.2210060000000000E+00
   0.2096420000000000E+02   0.0000000000000000E+00
   0.4803310000000000E+01   0.0000000000000000E+00
   0.1459330000000000E+01   0.0000000000000000E+00
   0.4834560000000000E+00   0.0000000000000000E+00
   0.1455850000000000E+00   0.0000000000000000E+00
 s  11 1.00
   0.4563240000000000E+04   0.0000000000000000E+00
   0.6820240000000000E+03   0.0000000000000000E+00
   0.1549730000000000E+03   0.0000000000000000E+00
   0.4445530000000000E+02   0.0000000000000000E+00
   0.1302900000000000E+02   0.0000000000000000E+00
   0.1827730000000000E+01   0.0000000000000000E+00
   0.2096420000000000E+02   0.1146600000000000E+00
   0.4803310000000000E+01   0.9199990000000000E+00
   0.1459330000000000E+01  -0.3030680000000000E-02
   0.4834560000000000E+00   0.0000000000000000E+00
   0.1455850000000000E+00   0.0000000000000000E+00
 s  11 1.00
   0.4563240000000000E+04   0.0000000000000000E+00
   0.6820240000000000E+03   0.0000000000000000E+00
   0.1549730000000000E+03   0.0000000000000000E+00
   0.4445530000000000E+02   0.0000000000000000E+00
   0.1302900000000000E+02   0.0000000000000000E+00
   0.1827730000000000E+01   0.0000000000000000E+00
   0.2096420000000000E+02   0.0000000000000000E+00
   0.4803310000000000E+01   0.0000000000000000E+00
   0.1459330000000000E+01   0.0000000000000000E+00
   0.4834560000000000E+00   0.1000000000000000E+01
   0.1455850000000000E+00   0.0000000000000000E+00
 s  11 1.00
   0.4563240000000000E+04   0.0000000000000000E+00
   0.6820240000000000E+03   0.0000000000000000E+00
   0.1549730000000000E+03   0.0000000000000000E+00
   0.4445530000000000E+02   0.0000000000000000E+00
   0.1302900000000000E+02   0.0000000000000000E+00
   0.1827730000000000E+01   0.0000000000000000E+00
   0.2096420000000000E+02   0.0000000000000000E+00
   0.4803310000000000E+01   0.0000000000000000E+00
   0.1459330000000000E+01   0.0000000000000000E+00
   0.4834560000000000E+00   0.0000000000000000E+00
   0.1455850000000000E+00   0.1000000000000000E+01
 p   5 1.00
   0.2096420000000000E+02   0.4024870000000000E-01
   0.4803310000000000E+01   0.2375940000000000E+00
   0.1459330000000000E+01   0.8158540000000000E+00
   0.4834560000000000E+00   0.0000000000000000E+00
   0.1455850000000000E+00   0.0000000000000000E+00
 p   5 1.00
   0.2096420000000000E+02   0.0000000000000000E+00
   0.4803310000000000E+01   0.0000000000000000E+00
   0.1459330000000000E+01   0.0000000000000000E+00
   0.4834560000000000E+00   0.1000000000000000E+01
   0.1455850000000000E+00   0.0000000000000000E+00
 p   5 1.00
   0.2096420000000000E+02   0.0000000000000000E+00
   0.4803310000000000E+01   0.0000000000000000E+00
   0.1459330000000000E+01   0.0000000000000000E+00
   0.4834560000000000E+00   0.0000000000000000E+00
   0.1455850000000000E+00   0.1000000000000000E+01

    4 0
 s  11 1.00
   0.4563240000000000E+04   0.1966650000000000E-02
   0.6820240000000000E+03   0.1523060000000000E-01
   0.1549730000000000E+03   0.7612690000000000E-01
   0.4445530000000000E+02   0.2608010000000000E+00
   0.1302900000000000E+02   0.6164620000000000E+00
   0.1827730000000000E+01   0.2210060000000000E+00
   0.2096420000000000E+02   0.0000000000000000E+00
   0.4803310000000000E+01   0.0000000000000000E+00
   0.1459330000000000E+01   0.0000000000000000E+00
   0.4834560000000000E+00   0.0000000000000000E+00
   0.1455850000000000E+00   0.0000000000000000E+00
 s  11 1.00
   0.4563240000000000E+04   0.0000000000000000E+00
   0.6820240000000000E+03   0.0000000000000000E+00
   0.1549730000000000E+03   0.0000000000000000E+00
   0.4445530000000000E+02   0.0000000000000000E+00
   0.1302900000000000E+02   0.0000000000000000E+00
   0.1827730000000000E+01   0.0000000000000000E+00
   0.2096420000000000E+02   0.1146600000000000E+00
   0.4803310000000000E+01   0.9199990000000000E+00
   0.1459330000000000E+01  -0.3030680000000000E-02
   0.4834560000000000E+00   0.0000000000000000E+00
   0.1455850000000000E+00   0.0000000000000000E+00
 s  11 1.00
   0.4563240000000000E+04   0.0000000000000000E+00
   0.6820240000000000E+03   0.0000000000000000E+00
   0.1549730000000000E+03   0.0000000000000000E+00
   0.4445530000000000E+02   0.0000000000000000E+00
   0.1302900000000000E+02   0.0000000000000000E+00
   0.1827730000000000E+01   0.0000000000000000E+00
   0.2096420000000000E+02   0.0000000000000000E+00
   0.4803310000000000E+01   0.0000000000000000E+00
   0.1459330000000000E+01   0.0000000000000000E+00
   0.4834560000000000E+00   0.1000000000000000E+01
   0.1455850000000000E+00   0.0000000000000000E+00
 s  11 1.00
   0.4563240000000000E+04   0.0000000000000000E+00
   0.6820240000000000E+03   0.0000000000000000E+00
   0.1549730000000000E+03   0.0000000000000000E+00
   0.4445530000000000E+02   0.0000000000000000E+00
   0.1302900000000000E+02   0.0000000000000000E+00
   0.1827730000000000E+01   0.0000000000000000E+00
   0.2096420000000000E+02   0.0000000000000000E+00
   0.4803310000000000E+01   0.0000000000000000E+00
   0.1459330000000000E+01   0.0000000000000000E+00
   0.4834560000000000E+00   0.0000000000000000E+00
   0.1455850000000000E+00   0.1000000000000000E+01
 p   5 1.00
   0.2096420000000000E+02   0.4024870000000000E-01
   0.4803310000000000E+01   0.2375940000000000E+00
   0.1459330000000000E+01   0.8158540000000000E+00
   0.4834560000000000E+00   0.0000000000000000E+00
   0.1455850000000000E+00   0.0000000000000000E+00
 p   5 1.00
   0.2096420000000000E+02   0.0000000000000000E+00
   0.4803310000000000E+01   0.0000000000000000E+00
   0.1459330000000000E+01   0.0000000000000000E+00
   0.4834560000000000E+00   0.1000000000000000E+01
   0.1455850000000000E+00   0.0000000000000000E+00
 p   5 1.00
   0.2096420000000000E+02   0.0000000000000000E+00
   0.4803310000000000E+01   0.0000000000000000E+00
   0.1459330000000000E+01   0.0000000000000000E+00
   0.4834560000000000E+00   0.0000000000000000E+00
   0.1455850000000000E+00   0.1000000000000000E+01

    5 0
 s  11 1.00
   0.4563240000000000E+04   0.1966650000000000E-02
   0.6820240000000000E+03   0.1523060000000000E-01
   0.1549730000000000E+03   0.7612690000000000E-01
   0.4445530000000000E+02   0.2608010000000000E+00
   0.1302900000000000E+02   0.6164620000000000E+00
   0.1827730000000000E+01   0.2210060000000000E+00
   0.2096420000000000E+02   0.0000000000000000E+00
   0.4803310000000000E+01   0.0000000000000000E+00
   0.1459330000000000E+01   0.0000000000000000E+00
   0.4834560000000000E+00   0.0000000000000000E+00
   0.1455850000000000E+00   0.0000000000000000E+00
 s  11 1.00
   0.4563240000000000E+04   0.0000000000000000E+00
   0.6820240000000000E+03   0.0000000000000000E+00
   0.1549730000000000E+03   0.0000000000000000E+00
   0.4445530000000000E+02   0.0000000000000000E+00
   0.1302900000000000E+02   0.0000000000000000E+00
   0.1827730000000000E+01   0.0000000000000000E+00
   0.2096420000000000E+02   0.1146600000000000E+00
   0.4803310000000000E+01   0.9199990000000000E+00
   0.1459330000000000E+01  -0.3030680000000000E-02
   0.4834560000000000E+00   0.0000000000000000E+00
   0.1455850000000000E+00   0.0000000000000000E+00
 s  11 1.00
   0.4563240000000000E+04   0.0000000000000000E+00
   0.6820240000000000E+03   0.0000000000000000E+00
   0.1549730000000000E+03   0.0000000000000000E+00
   0.4445530000000000E+02   0.0000000000000000E+00
   0.1302900000000000E+02   0.0000000000000000E+00
   0.1827730000000000E+01   0.0000000000000000E+00
   0.2096420000000000E+02   0.0000000000000000E+00
   0.4803310000000000E+01   0.0000000000000000E+00
   0.1459330000000000E+01   0.0000000000000000E+00
   0.4834560000000000E+00   0.1000000000000000E+01
   0.1455850000000000E+00   0.0000000000000000E+00
 s  11 1.00
   0.4563240000000000E+04   0.0000000000000000E+00
   0.6820240000000000E+03   0.0000000000000000E+00
   0.1549730000000000E+03   0.0000000000000000E+00
   0.4445530000000000E+02   0.0000000000000000E+00
   0.1302900000000000E+02   0.0000000000000000E+00
   0.1827730000000000E+01   0.0000000000000000E+00
   0.2096420000000000E+02   0.0000000000000000E+00
   0.4803310000000000E+01   0.0000000000000000E+00
   0.1459330000000000E+01   0.0000000000000000E+00
   0.4834560000000000E+00   0.0000000000000000E+00
   0.1455850000000000E+00   0.1000000000000000E+01
 p   5 1.00
   0.2096420000000000E+02   0.4024870000000000E-01
   0.4803310000000000E+01   0.2375940000000000E+00
   0.1459330000000000E+01   0.8158540000000000E+00
   0.4834560000000000E+00   0.0000000000000000E+00
   0.1455850000000000E+00   0.0000000000000000E+00
 p   5 1.00
   0.2096420000000000E+02   0.0000000000000000E+00
   0.4803310000000000E+01   0.0000000000000000E+00
   0.1459330000000000E+01   0.0000000000000000E+00
   0.4834560000000000E+00   0.1000000000000000E+01
   0.1455850000000000E+00   0.0000000000000000E+00
 p   5 1.00
   0.2096420000000000E+02   0.0000000000000000E+00
   0.4803310000000000E+01   0.0000000000000000E+00
   0.1459330000000000E+01   0.0000000000000000E+00
   0.4834560000000000E+00   0.0000000000000000E+00
   0.1455850000000000E+00   0.1000000000000000E+01

    6 0
 s  11 1.00
   0.4563240000000000E+04   0.1966650000000000E-02
   0.6820240000000000E+03   0.1523060000000000E-01
   0.1549730000000000E+03   0.7612690000000000E-01
   0.4445530000000000E+02   0.2608010000000000E+00
   0.1302900000000000E+02   0.6164620000000000E+00
   0.1827730000000000E+01   0.2210060000000000E+00
   0.2096420000000000E+02   0.0000000000000000E+00
   0.4803310000000000E+01   0.0000000000000000E+00
   0.1459330000000000E+01   0.0000000000000000E+00
   0.4834560000000000E+00   0.0000000000000000E+00
   0.1455850000000000E+00   0.0000000000000000E+00
 s  11 1.00
   0.4563240000000000E+04   0.0000000000000000E+00
   0.6820240000000000E+03   0.0000000000000000E+00
   0.1549730000000000E+03   0.0000000000000000E+00
   0.4445530000000000E+02   0.0000000000000000E+00
   0.1302900000000000E+02   0.0000000000000000E+00
   0.1827730000000000E+01   0.0000000000000000E+00
   0.2096420000000000E+02   0.1146600000000000E+00
   0.4803310000000000E+01   0.9199990000000000E+00
   0.1459330000000000E+01  -0.3030680000000000E-02
   0.4834560000000000E+00   0.0000000000000000E+00
   0.1455850000000000E+00   0.0000000000000000E+00
 s  11 1.00
   0.4563240000000000E+04   0.0000000000000000E+00
   0.6820240000000000E+03   0.0000000000000000E+00
   0.1549730000000000E+03   0.0000000000000000E+00
   0.4445530000000000E+02   0.0000000000000000E+00
   0.1302900000000000E+02   0.0000000000000000E+00
   0.1827730000000000E+01   0.0000000000000000E+00
   0.2096420000000000E+02   0.0000000000000000E+00
   0.4803310000000000E+01   0.0000000000000000E+00
   0.1459330000000000E+01   0.0000000000000000E+00
   0.4834560000000000E+00   0.1000000000000000E+01
   0.1455850000000000E+00   0.0000000000000000E+00
 s  11 1.00
   0.4563240000000000E+04   0.0000000000000000E+00
   0.6820240000000000E+03   0.0000000000000000E+00
   0.1549730000000000E+03   0.0000000000000000E+00
   0.4445530000000000E+02   0.0000000000000000E+00
   0.1302900000000000E+02   0.0000000000000000E+00
   0.1827730000000000E+01   0.0000000000000000E+00
   0.2096420000000000E+02   0.0000000000000000E+00
   0.4803310000000000E+01   0.0000000000000000E+00
   0.1459330000000000E+01   0.0000000000000000E+00
   0.4834560000000000E+00   0.0000000000000000E+00
   0.1455850000000000E+00   0.1000000000000000E+01
 p   5 1.00
   0.2096420000000000E+02   0.4024870000000000E-01
   0.4803310000000000E+01   0.2375940000000000E+00
   0.1459330000000000E+01   0.8158540000000000E+00
   0.4834560000000000E+00   0.0000000000000000E+00
   0.1455850000000000E+00   0.0000000000000000E+00
 p   5 1.00
   0.2096420000000000E+02   0.0000000000000000E+00
   0.4803310000000000E+01   0.0000000000000000E+00
   0.1459330000000000E+01   0.0000000000000000E+00
   0.4834560000000000E+00   0.1000000000000000E+01
   0.1455850000000000E+00   0.0000000000000000E+00
 p   5 1.00
   0.2096420000000000E+02   0.0000000000000000E+00
   0.4803310000000000E+01   0.0000000000000000E+00
   0.1459330000000000E+01   0.0000000000000000E+00
   0.4834560000000000E+00   0.0000000000000000E+00
   0.1455850000000000E+00   0.1000000000000000E+01

    7 0
 s   5 1.00
   0.3386500000000000E+02   0.2549380000000000E-01
   0.5094790000000000E+01   0.1903730000000000E+00
   0.1158790000000000E+01   0.8521609999999999E+00
   0.3258400000000000E+00   0.0000000000000000E+00
   0.1027410000000000E+00   0.0000000000000000E+00
 s   5 1.00
   0.3386500000000000E+02   0.0000000000000000E+00
   0.5094790000000000E+01   0.0000000000000000E+00
   0.1158790000000000E+01   0.0000000000000000E+00
   0.3258400000000000E+00   0.1000000000000000E+01
   0.1027410000000000E+00   0.0000000000000000E+00
 s   5 1.00
   0.3386500000000000E+02   0.0000000000000000E+00
   0.5094790000000000E+01   0.0000000000000000E+00
   0.1158790000000000E+01   0.0000000000000000E+00
   0.3258400000000000E+00   0.0000000000000000E+00
   0.1027410000000000E+00   0.1000000000000000E+01

    8 0
 s   5 1.00
   0.3386500000000000E+02   0.2549380000000000E-01
   0.5094790000000000E+01   0.1903730000000000E+00
   0.1158790000000000E+01   0.8521609999999999E+00
   0.3258400000000000E+00   0.0000000000000000E+00
   0.1027410000000000E+00   0.0000000000000000E+00
 s   5 1.00
   0.3386500000000000E+02   0.0000000000000000E+00
   0.5094790000000000E+01   0.0000000000000000E+00
   0.1158790000000000E+01   0.0000000000000000E+00
   0.3258400000000000E+00   0.1000000000000000E+01
   0.1027410000000000E+00   0.0000000000000000E+00
 s   5 1.00
   0.3386500000000000E+02   0.0000000000000000E+00
   0.5094790000000000E+01   0.0000000000000000E+00
   0.1158790000000000E+01   0.0000000000000000E+00
   0.3258400000000000E+00   0.0000000000000000E+00
   0.1027410000000000E+00   0.1000000000000000E+01

    9 0
 s   5 1.00
   0.3386500000000000E+02   0.2549380000000000E-01
   0.5094790000000000E+01   0.1903730000000000E+00
   0.1158790000000000E+01   0.8521609999999999E+00
   0.3258400000000000E+00   0.0000000000000000E+00
   0.1027410000000000E+00   0.0000000000000000E+00
 s   5 1.00
   0.3386500000000000E+02   0.0000000000000000E+00
   0.5094790000000000E+01   0.0000000000000000E+00
   0.1158790000000000E+01   0.0000000000000000E+00
   0.3258400000000000E+00   0.1000000000000000E+01
   0.1027410000000000E+00   0.0000000000000000E+00
 s   5 1.00
   0.3386500000000000E+02   0.0000000000000000E+00
   0.5094790000000000E+01   0.0000000000000000E+00
   0.1158790000000000E+01   0.0000000000000000E+00
   0.3258400000000000E+00   0.0000000000000000E+00
   0.1027410000000000E+00   0.1000000000000000E+01

   10 0
 s   5 1.00
   0.3386500000000000E+02   0.2549380000000000E-01
   0.5094790000000000E+01   0.1903730000000000E+00
   0.1158790000000000E+01   0.8521609999999999E+00
   0.3258400000000000E+00   0.0000000000000000E+00
   0.1027410000000000E+00   0.0000000000000000E+00
 s   5 1.00
   0.3386500000000000E+02   0.0000000000000000E+00
   0.5094790000000000E+01   0.0000000000000000E+00
   0.1158790000000000E+01   0.0000000000000000E+00
   0.3258400000000000E+00   0.1000000000000000E+01
   0.1027410000000000E+00   0.0000000000000000E+00
 s   5 1.00
   0.3386500000000000E+02   0.0000000000000000E+00
   0.5094790000000000E+01   0.0000000000000000E+00
   0.1158790000000000E+01   0.0000000000000000E+00
   0.3258400000000000E+00   0.0000000000000000E+00
   0.1027410000000000E+00   0.1000000000000000E+01

   11 0
 s   5 1.00
   0.3386500000000000E+02   0.2549380000000000E-01
   0.5094790000000000E+01   0.1903730000000000E+00
   0.1158790000000000E+01   0.8521609999999999E+00
   0.3258400000000000E+00   0.0000000000000000E+00
   0.1027410000000000E+00   0.0000000000000000E+00
 s   5 1.00
   0.3386500000000000E+02   0.0000000000000000E+00
   0.5094790000000000E+01   0.0000000000000000E+00
   0.1158790000000000E+01   0.0000000000000000E+00
   0.3258400000000000E+00   0.1000000000000000E+01
   0.1027410000000000E+00   0.0000000000000000E+00
 s   5 1.00
   0.3386500000000000E+02   0.0000000000000000E+00
   0.5094790000000000E+01   0.0000000000000000E+00
   0.1158790000000000E+01   0.0000000000000000E+00
   0.3258400000000000E+00   0.0000000000000000E+00
   0.1027410000000000E+00   0.1000000000000000E+01

   12 0
 s   5 1.00
   0.3386500000000000E+02   0.2549380000000000E-01
   0.5094790000000000E+01   0.1903730000000000E+00
   0.1158790000000000E+01   0.8521609999999999E+00
   0.3258400000000000E+00   0.0000000000000000E+00
   0.1027410000000000E+00   0.0000000000000000E+00
 s   5 1.00
   0.3386500000000000E+02   0.0000000000000000E+00
   0.5094790000000000E+01   0.0000000000000000E+00
   0.1158790000000000E+01   0.0000000000000000E+00
   0.3258400000000000E+00   0.1000000000000000E+01
   0.1027410000000000E+00   0.0000000000000000E+00
 s   5 1.00
   0.3386500000000000E+02   0.0000000000000000E+00
   0.5094790000000000E+01   0.0000000000000000E+00
   0.1158790000000000E+01   0.0000000000000000E+00
   0.3258400000000000E+00   0.0000000000000000E+00
   0.1027410000000000E+00   0.1000000000000000E+01

[SCFCONV]
scf-first  1  THROUGH   9
     -229.4269518489
     -230.3446554175
     -230.4257240990
     -230.4312226798
     -230.4315284688
     -230.4315328580
     -230.4315329709
     -230.4315329748
     -230.4315329753
[TITLE]
*** Dalton interface to Molden, wave function type : HF             6Jun25   00:
[5D7F]
[9G]
[MO]
Sym= A'
Ene=  -11.2376
Spin= Alpha
Occup=  2.0000
    1   0.2290311010046309E+000
    2   0.1896073782952506E+000
    3   0.2182085812238818E-002
    4  -0.1555838628168987E-003
    5  -0.1624983899038171E-011
    6  -0.4882810608553334E-003
    7  -0.8888623147118151E-004
    8  -0.2846875665148242E-011
    9  -0.3170643524061801E-004
   10  -0.7964017693485390E-004
   11   0.1845702796273879E-011
   12   0.1078452997403667E-003
   13   0.7957605825175932E-004
   14   0.2290311010046309E+000
   15   0.1896073782952506E+000
   16   0.2182085812238818E-002
   17  -0.1555838628168987E-003
   18  -0.1624983899038171E-011
   19  -0.4882810608553334E-003
   20   0.8888623147118151E-004
   21  -0.2846875665148242E-011
   22  -0.3170643524061801E-004
   23   0.7964017693485390E-004
   24   0.1845702796273879E-011
   25   0.1078452997403667E-003
   26  -0.7957605825175932E-004
   27   0.2303732693613851E+000
   28   0.1907188534697807E+000
   29   0.2193399066361677E-002
   30  -0.1603831015454572E-003
   31   0.4247229421406363E-003
   32   0.2449895096151559E-003
   33  -0.8948225421018951E-004
   34   0.2695750581209901E-004
   35   0.1499755845552630E-004
   36  -0.8048104199415966E-004
   37  -0.9513370905270202E-004
   38  -0.5538698411184836E-004
   39   0.8070877203292251E-004
   40   0.2303732693613851E+000
   41   0.1907188534697807E+000
   42   0.2193399066361677E-002
   43  -0.1603831015454572E-003
   44   0.4247229421406363E-003
   45   0.2449895096151559E-003
   46   0.8948225421018951E-004
   47   0.2695750581209901E-004
   48   0.1499755845552630E-004
   49   0.8048104199415966E-004
   50  -0.9513370905270202E-004
   51  -0.5538698411184836E-004
   52  -0.8070877203292251E-004
   53   0.2303732694595160E+000
   54   0.1907188535559806E+000
   55   0.2193399041990662E-002
   56  -0.1603831333206794E-003
   57  -0.4247229443652132E-003
   58   0.2449895090229287E-003
   59  -0.8948225291081888E-004
   60  -0.2695750766262568E-004
   61   0.1499755623643142E-004
   62  -0.8048103915750583E-004
   63   0.9513371758653685E-004
   64  -0.5538698690732996E-004
   65   0.8070877374513943E-004
   66   0.2303732694595160E+000
   67   0.1907188535559806E+000
   68   0.2193399041990662E-002
   69  -0.1603831333206794E-003
   70  -0.4247229443652132E-003
   71   0.2449895090229287E-003
   72   0.8948225291081888E-004
   73  -0.2695750766262568E-004
   74   0.1499755623643142E-004
   75   0.8048103915750583E-004
   76   0.9513371758653685E-004
   77  -0.5538698690732996E-004
   78  -0.8070877374513943E-004
   79   0.1560930392397407E-003
   80  -0.8800702928697330E-004
   81   0.5902799897529621E-004
   82   0.1560930392397407E-003
   83  -0.8800702928697330E-004
   84   0.5902799897529621E-004
   85   0.1570407609298111E-003
   86  -0.8828349033534319E-004
   87   0.5899312341180928E-004
   88   0.1570407609298111E-003
   89  -0.8828349033534319E-004
   90   0.5899312341180928E-004
   91   0.1570407569332273E-003
   92  -0.8828349589445669E-004
   93   0.5899312534464693E-004
   94   0.1570407569332273E-003
   95  -0.8828349589445669E-004
   96   0.5899312534464693E-004
Sym= A'
Ene=  -11.2367
Spin= Alpha
Occup=  2.0000
    1   0.1986501196404007E-007
    2   0.1666217123127457E-007
    3  -0.1021053313216980E-008
    4  -0.1727089547168132E-008
    5   0.8916000372760741E-004
    6   0.1894008837555918E-009
    7  -0.1041678379777912E-009
    8   0.1998031223336570E-003
    9   0.3869736937180704E-009
   10  -0.1143126041952829E-009
   11   0.1633351593164715E-003
   12   0.8699063024474843E-009
   13  -0.1875325945999509E-009
   14   0.1986501196404007E-007
   15   0.1666217123127457E-007
   16  -0.1021053313216980E-008
   17  -0.1727089547168132E-008
   18   0.8916000372760741E-004
   19   0.1894008837555918E-009
   20   0.1041678379777912E-009
   21   0.1998031223336570E-003
   22   0.3869736937180704E-009
   23   0.1143126041952829E-009
   24   0.1633351593164715E-003
   25   0.8699063024474843E-009
   26   0.1875325945999509E-009
   27  -0.2816702959160820E+000
   28  -0.2332575538057048E+000
   29  -0.2355534239200989E-002
   30   0.9679955238829254E-003
   31  -0.3450103721535333E-003
   32  -0.2507072815640957E-003
   33   0.1213153195152409E-003
   34   0.2089483953621652E-003
   35   0.5295040101115817E-005
   36   0.1741260818200086E-003
   37   0.4197014266493414E-003
   38   0.1479706964485754E-003
   39  -0.2241239928171669E-003
   40  -0.2816702959160820E+000
   41  -0.2332575538057048E+000
   42  -0.2355534239200989E-002
   43   0.9679955238829254E-003
   44  -0.3450103721535333E-003
   45  -0.2507072815640957E-003
   46  -0.1213153195152409E-003
   47   0.2089483953621652E-003
   48   0.5295040101115817E-005
   49  -0.1741260818200086E-003
   50   0.4197014266493414E-003
   51   0.1479706964485754E-003
   52   0.2241239928171669E-003
   53   0.2816702760523683E+000
   54   0.2332575371446126E+000
   55   0.2355535260227950E-002
   56  -0.9679937968145864E-003
   57  -0.3450104033796213E-003
   58   0.2507076063710031E-003
   59  -0.1213152153867926E-003
   60   0.2089481943362791E-003
   61  -0.5294614226367843E-005
   62  -0.1741259675534100E-003