[Molden Format]
[Atoms] AU
N          1     7         0.0000000000         0.0000000000         2.6388135609
C_1        2     6         0.0000000000         0.0000000000        -2.5860902021
C_2_1      3     6         0.0000000000         2.1314220964         1.3532328781
C_2_2      4     6         0.0000000000        -2.1314220964         1.3532328781
C_3_1      5     6         0.0000000000         2.2429159378        -1.2557230101
C_3_2      6     6         0.0000000000        -2.2429159378        -1.2557230101
H_1        7     1         0.0000000000         0.0000000000        -4.6147111972
H_2_1      8     1         0.0000000000         3.8418132121         2.4479512223
H_2_2      9     1         0.0000000000        -3.8418132121         2.4479512223
H_3_1     10     1         0.0000000000         4.0338093864        -2.2034206617
H_3_2     11     1         0.0000000000        -4.0338093864        -2.2034206617
[GTO]
    1 0
 s  11 1.00
   0.6293480000000000E+04   0.1969790000000000E-02
   0.9490440000000000E+03   0.1496130000000000E-01
   0.2187760000000000E+03   0.7350060000000000E-01
   0.6369160000000000E+02   0.2489370000000000E+00
   0.1882820000000000E+02   0.6024600000000000E+00
   0.2720230000000000E+01   0.2562020000000000E+00
   0.3063310000000000E+02   0.0000000000000000E+00
   0.7026140000000000E+01   0.0000000000000000E+00
   0.2112050000000000E+01   0.0000000000000000E+00
   0.6840090000000000E+00   0.0000000000000000E+00
   0.2008780000000000E+00   0.0000000000000000E+00
 s  11 1.00
   0.6293480000000000E+04   0.0000000000000000E+00
   0.9490440000000000E+03   0.0000000000000000E+00
   0.2187760000000000E+03   0.0000000000000000E+00
   0.6369160000000000E+02   0.0000000000000000E+00
   0.1882820000000000E+02   0.0000000000000000E+00
   0.2720230000000000E+01   0.0000000000000000E+00
   0.3063310000000000E+02   0.1119060000000000E+00
   0.7026140000000000E+01   0.9216660000000000E+00
   0.2112050000000000E+01  -0.2569190000000000E-02
   0.6840090000000000E+00   0.0000000000000000E+00
   0.2008780000000000E+00   0.0000000000000000E+00
 s  11 1.00
   0.6293480000000000E+04   0.0000000000000000E+00
   0.9490440000000000E+03   0.0000000000000000E+00
   0.2187760000000000E+03   0.0000000000000000E+00
   0.6369160000000000E+02   0.0000000000000000E+00
   0.1882820000000000E+02   0.0000000000000000E+00
   0.2720230000000000E+01   0.0000000000000000E+00
   0.3063310000000000E+02   0.0000000000000000E+00
   0.7026140000000000E+01   0.0000000000000000E+00
   0.2112050000000000E+01   0.0000000000000000E+00
   0.6840090000000000E+00   0.1000000000000000E+01
   0.2008780000000000E+00   0.0000000000000000E+00
 s  11 1.00
   0.6293480000000000E+04   0.0000000000000000E+00
   0.9490440000000000E+03   0.0000000000000000E+00
   0.2187760000000000E+03   0.0000000000000000E+00
   0.6369160000000000E+02   0.0000000000000000E+00
   0.1882820000000000E+02   0.0000000000000000E+00
   0.2720230000000000E+01   0.0000000000000000E+00
   0.3063310000000000E+02   0.0000000000000000E+00
   0.7026140000000000E+01   0.0000000000000000E+00
   0.2112050000000000E+01   0.0000000000000000E+00
   0.6840090000000000E+00   0.0000000000000000E+00
   0.2008780000000000E+00   0.1000000000000000E+01
 p   5 1.00
   0.3063310000000000E+02   0.3831190000000000E-01
   0.7026140000000000E+01   0.2374030000000000E+00
   0.2112050000000000E+01   0.8175920000000000E+00
   0.6840090000000000E+00   0.0000000000000000E+00
   0.2008780000000000E+00   0.0000000000000000E+00
 p   5 1.00
   0.3063310000000000E+02   0.0000000000000000E+00
   0.7026140000000000E+01   0.0000000000000000E+00
   0.2112050000000000E+01   0.0000000000000000E+00
   0.6840090000000000E+00   0.1000000000000000E+01
   0.2008780000000000E+00   0.0000000000000000E+00
 p   5 1.00
   0.3063310000000000E+02   0.0000000000000000E+00
   0.7026140000000000E+01   0.0000000000000000E+00
   0.2112050000000000E+01   0.0000000000000000E+00
   0.6840090000000000E+00   0.0000000000000000E+00
   0.2008780000000000E+00   0.1000000000000000E+01

    2 0
 s  11 1.00
   0.4563240000000000E+04   0.1966650000000000E-02
   0.6820240000000000E+03   0.1523060000000000E-01
   0.1549730000000000E+03   0.7612690000000000E-01
   0.4445530000000000E+02   0.2608010000000000E+00
   0.1302900000000000E+02   0.6164620000000000E+00
   0.1827730000000000E+01   0.2210060000000000E+00
   0.2096420000000000E+02   0.0000000000000000E+00
   0.4803310000000000E+01   0.0000000000000000E+00
   0.1459330000000000E+01   0.0000000000000000E+00
   0.4834560000000000E+00   0.0000000000000000E+00
   0.1455850000000000E+00   0.0000000000000000E+00
 s  11 1.00
   0.4563240000000000E+04   0.0000000000000000E+00
   0.6820240000000000E+03   0.0000000000000000E+00
   0.1549730000000000E+03   0.0000000000000000E+00
   0.4445530000000000E+02   0.0000000000000000E+00
   0.1302900000000000E+02   0.0000000000000000E+00
   0.1827730000000000E+01   0.0000000000000000E+00
   0.2096420000000000E+02   0.1146600000000000E+00
   0.4803310000000000E+01   0.9199990000000000E+00
   0.1459330000000000E+01  -0.3030680000000000E-02
   0.4834560000000000E+00   0.0000000000000000E+00
   0.1455850000000000E+00   0.0000000000000000E+00
 s  11 1.00
   0.4563240000000000E+04   0.0000000000000000E+00
   0.6820240000000000E+03   0.0000000000000000E+00
   0.1549730000000000E+03   0.0000000000000000E+00
   0.4445530000000000E+02   0.0000000000000000E+00
   0.1302900000000000E+02   0.0000000000000000E+00
   0.1827730000000000E+01   0.0000000000000000E+00
   0.2096420000000000E+02   0.0000000000000000E+00
   0.4803310000000000E+01   0.0000000000000000E+00
   0.1459330000000000E+01   0.0000000000000000E+00
   0.4834560000000000E+00   0.1000000000000000E+01
   0.1455850000000000E+00   0.0000000000000000E+00
 s  11 1.00
   0.4563240000000000E+04   0.0000000000000000E+00
   0.6820240000000000E+03   0.0000000000000000E+00
   0.1549730000000000E+03   0.0000000000000000E+00
   0.4445530000000000E+02   0.0000000000000000E+00
   0.1302900000000000E+02   0.0000000000000000E+00
   0.1827730000000000E+01   0.0000000000000000E+00
   0.2096420000000000E+02   0.0000000000000000E+00
   0.4803310000000000E+01   0.0000000000000000E+00
   0.1459330000000000E+01   0.0000000000000000E+00
   0.4834560000000000E+00   0.0000000000000000E+00
   0.1455850000000000E+00   0.1000000000000000E+01
 p   5 1.00
   0.2096420000000000E+02   0.4024870000000000E-01
   0.4803310000000000E+01   0.2375940000000000E+00
   0.1459330000000000E+01   0.8158540000000000E+00
   0.4834560000000000E+00   0.0000000000000000E+00
   0.1455850000000000E+00   0.0000000000000000E+00
 p   5 1.00
   0.2096420000000000E+02   0.0000000000000000E+00
   0.4803310000000000E+01   0.0000000000000000E+00
   0.1459330000000000E+01   0.0000000000000000E+00
   0.4834560000000000E+00   0.1000000000000000E+01
   0.1455850000000000E+00   0.0000000000000000E+00
 p   5 1.00
   0.2096420000000000E+02   0.0000000000000000E+00
   0.4803310000000000E+01   0.0000000000000000E+00
   0.1459330000000000E+01   0.0000000000000000E+00
   0.4834560000000000E+00   0.0000000000000000E+00
   0.1455850000000000E+00   0.1000000000000000E+01

    3 0
 s  11 1.00
   0.4563240000000000E+04   0.1966650000000000E-02
   0.6820240000000000E+03   0.1523060000000000E-01
   0.1549730000000000E+03   0.7612690000000000E-01
   0.4445530000000000E+02   0.2608010000000000E+00
   0.1302900000000000E+02   0.6164620000000000E+00
   0.1827730000000000E+01   0.2210060000000000E+00
   0.2096420000000000E+02   0.0000000000000000E+00
   0.4803310000000000E+01   0.0000000000000000E+00
   0.1459330000000000E+01   0.0000000000000000E+00
   0.4834560000000000E+00   0.0000000000000000E+00
   0.1455850000000000E+00   0.0000000000000000E+00
 s  11 1.00
   0.4563240000000000E+04   0.0000000000000000E+00
   0.6820240000000000E+03   0.0000000000000000E+00
   0.1549730000000000E+03   0.0000000000000000E+00
   0.4445530000000000E+02   0.0000000000000000E+00
   0.1302900000000000E+02   0.0000000000000000E+00
   0.1827730000000000E+01   0.0000000000000000E+00
   0.2096420000000000E+02   0.1146600000000000E+00
   0.4803310000000000E+01   0.9199990000000000E+00
   0.1459330000000000E+01  -0.3030680000000000E-02
   0.4834560000000000E+00   0.0000000000000000E+00
   0.1455850000000000E+00   0.0000000000000000E+00
 s  11 1.00
   0.4563240000000000E+04   0.0000000000000000E+00
   0.6820240000000000E+03   0.0000000000000000E+00
   0.1549730000000000E+03   0.0000000000000000E+00
   0.4445530000000000E+02   0.0000000000000000E+00
   0.1302900000000000E+02   0.0000000000000000E+00
   0.1827730000000000E+01   0.0000000000000000E+00
   0.2096420000000000E+02   0.0000000000000000E+00
   0.4803310000000000E+01   0.0000000000000000E+00
   0.1459330000000000E+01   0.0000000000000000E+00
   0.4834560000000000E+00   0.1000000000000000E+01
   0.1455850000000000E+00   0.0000000000000000E+00
 s  11 1.00
   0.4563240000000000E+04   0.0000000000000000E+00
   0.6820240000000000E+03   0.0000000000000000E+00
   0.1549730000000000E+03   0.0000000000000000E+00
   0.4445530000000000E+02   0.0000000000000000E+00
   0.1302900000000000E+02   0.0000000000000000E+00
   0.1827730000000000E+01   0.0000000000000000E+00
   0.2096420000000000E+02   0.0000000000000000E+00
   0.4803310000000000E+01   0.0000000000000000E+00
   0.1459330000000000E+01   0.0000000000000000E+00
   0.4834560000000000E+00   0.0000000000000000E+00
   0.1455850000000000E+00   0.1000000000000000E+01
 p   5 1.00
   0.2096420000000000E+02   0.4024870000000000E-01
   0.4803310000000000E+01   0.2375940000000000E+00
   0.1459330000000000E+01   0.8158540000000000E+00
   0.4834560000000000E+00   0.0000000000000000E+00
   0.1455850000000000E+00   0.0000000000000000E+00
 p   5 1.00
   0.2096420000000000E+02   0.0000000000000000E+00
   0.4803310000000000E+01   0.0000000000000000E+00
   0.1459330000000000E+01   0.0000000000000000E+00
   0.4834560000000000E+00   0.1000000000000000E+01
   0.1455850000000000E+00   0.0000000000000000E+00
 p   5 1.00
   0.2096420000000000E+02   0.0000000000000000E+00
   0.4803310000000000E+01   0.0000000000000000E+00
   0.1459330000000000E+01   0.0000000000000000E+00
   0.4834560000000000E+00   0.0000000000000000E+00
   0.1455850000000000E+00   0.1000000000000000E+01

    4 0
 s  11 1.00
   0.4563240000000000E+04   0.1966650000000000E-02
   0.6820240000000000E+03   0.1523060000000000E-01
   0.1549730000000000E+03   0.7612690000000000E-01
   0.4445530000000000E+02   0.2608010000000000E+00
   0.1302900000000000E+02   0.6164620000000000E+00
   0.1827730000000000E+01   0.2210060000000000E+00
   0.2096420000000000E+02   0.0000000000000000E+00
   0.4803310000000000E+01   0.0000000000000000E+00
   0.1459330000000000E+01   0.0000000000000000E+00
   0.4834560000000000E+00   0.0000000000000000E+00
   0.1455850000000000E+00   0.0000000000000000E+00
 s  11 1.00
   0.4563240000000000E+04   0.0000000000000000E+00
   0.6820240000000000E+03   0.0000000000000000E+00
   0.1549730000000000E+03   0.0000000000000000E+00
   0.4445530000000000E+02   0.0000000000000000E+00
   0.1302900000000000E+02   0.0000000000000000E+00
   0.1827730000000000E+01   0.0000000000000000E+00
   0.2096420000000000E+02   0.1146600000000000E+00
   0.4803310000000000E+01   0.9199990000000000E+00
   0.1459330000000000E+01  -0.3030680000000000E-02
   0.4834560000000000E+00   0.0000000000000000E+00
   0.1455850000000000E+00   0.0000000000000000E+00
 s  11 1.00
   0.4563240000000000E+04   0.0000000000000000E+00
   0.6820240000000000E+03   0.0000000000000000E+00
   0.1549730000000000E+03   0.0000000000000000E+00
   0.4445530000000000E+02   0.0000000000000000E+00
   0.1302900000000000E+02   0.0000000000000000E+00
   0.1827730000000000E+01   0.0000000000000000E+00
   0.2096420000000000E+02   0.0000000000000000E+00
   0.4803310000000000E+01   0.0000000000000000E+00
   0.1459330000000000E+01   0.0000000000000000E+00
   0.4834560000000000E+00   0.1000000000000000E+01
   0.1455850000000000E+00   0.0000000000000000E+00
 s  11 1.00
   0.4563240000000000E+04   0.0000000000000000E+00
   0.6820240000000000E+03   0.0000000000000000E+00
   0.1549730000000000E+03   0.0000000000000000E+00
   0.4445530000000000E+02   0.0000000000000000E+00
   0.1302900000000000E+02   0.0000000000000000E+00
   0.1827730000000000E+01   0.0000000000000000E+00
   0.2096420000000000E+02   0.0000000000000000E+00
   0.4803310000000000E+01   0.0000000000000000E+00
   0.1459330000000000E+01   0.0000000000000000E+00
   0.4834560000000000E+00   0.0000000000000000E+00
   0.1455850000000000E+00   0.1000000000000000E+01
 p   5 1.00
   0.2096420000000000E+02   0.4024870000000000E-01
   0.4803310000000000E+01   0.2375940000000000E+00
   0.1459330000000000E+01   0.8158540000000000E+00
   0.4834560000000000E+00   0.0000000000000000E+00
   0.1455850000000000E+00   0.0000000000000000E+00
 p   5 1.00
   0.2096420000000000E+02   0.0000000000000000E+00
   0.4803310000000000E+01   0.0000000000000000E+00
   0.1459330000000000E+01   0.0000000000000000E+00
   0.4834560000000000E+00   0.1000000000000000E+01
   0.1455850000000000E+00   0.0000000000000000E+00
 p   5 1.00
   0.2096420000000000E+02   0.0000000000000000E+00
   0.4803310000000000E+01   0.0000000000000000E+00
   0.1459330000000000E+01   0.0000000000000000E+00
   0.4834560000000000E+00   0.0000000000000000E+00
   0.1455850000000000E+00   0.1000000000000000E+01

    5 0
 s  11 1.00
   0.4563240000000000E+04   0.1966650000000000E-02
   0.6820240000000000E+03   0.1523060000000000E-01
   0.1549730000000000E+03   0.7612690000000000E-01
   0.4445530000000000E+02   0.2608010000000000E+00
   0.1302900000000000E+02   0.6164620000000000E+00
   0.1827730000000000E+01   0.2210060000000000E+00
   0.2096420000000000E+02   0.0000000000000000E+00
   0.4803310000000000E+01   0.0000000000000000E+00
   0.1459330000000000E+01   0.0000000000000000E+00
   0.4834560000000000E+00   0.0000000000000000E+00
   0.1455850000000000E+00   0.0000000000000000E+00
 s  11 1.00
   0.4563240000000000E+04   0.0000000000000000E+00
   0.6820240000000000E+03   0.0000000000000000E+00
   0.1549730000000000E+03   0.0000000000000000E+00
   0.4445530000000000E+02   0.0000000000000000E+00
   0.1302900000000000E+02   0.0000000000000000E+00
   0.1827730000000000E+01   0.0000000000000000E+00
   0.2096420000000000E+02   0.1146600000000000E+00
   0.4803310000000000E+01   0.9199990000000000E+00
   0.1459330000000000E+01  -0.3030680000000000E-02
   0.4834560000000000E+00   0.0000000000000000E+00
   0.1455850000000000E+00   0.0000000000000000E+00
 s  11 1.00
   0.4563240000000000E+04   0.0000000000000000E+00
   0.6820240000000000E+03   0.0000000000000000E+00
   0.1549730000000000E+03   0.0000000000000000E+00
   0.4445530000000000E+02   0.0000000000000000E+00
   0.1302900000000000E+02   0.0000000000000000E+00
   0.1827730000000000E+01   0.0000000000000000E+00
   0.2096420000000000E+02   0.0000000000000000E+00
   0.4803310000000000E+01   0.0000000000000000E+00
   0.1459330000000000E+01   0.0000000000000000E+00
   0.4834560000000000E+00   0.1000000000000000E+01
   0.1455850000000000E+00   0.0000000000000000E+00
 s  11 1.00
   0.4563240000000000E+04   0.0000000000000000E+00
   0.6820240000000000E+03   0.0000000000000000E+00
   0.1549730000000000E+03   0.0000000000000000E+00
   0.4445530000000000E+02   0.0000000000000000E+00
   0.1302900000000000E+02   0.0000000000000000E+00
   0.1827730000000000E+01   0.0000000000000000E+00
   0.2096420000000000E+02   0.0000000000000000E+00
   0.4803310000000000E+01   0.0000000000000000E+00
   0.1459330000000000E+01   0.0000000000000000E+00
   0.4834560000000000E+00   0.0000000000000000E+00
   0.1455850000000000E+00   0.1000000000000000E+01
 p   5 1.00
   0.2096420000000000E+02   0.4024870000000000E-01
   0.4803310000000000E+01   0.2375940000000000E+00
   0.1459330000000000E+01   0.8158540000000000E+00
   0.4834560000000000E+00   0.0000000000000000E+00
   0.1455850000000000E+00   0.0000000000000000E+00
 p   5 1.00
   0.2096420000000000E+02   0.0000000000000000E+00
   0.4803310000000000E+01   0.0000000000000000E+00
   0.1459330000000000E+01   0.0000000000000000E+00
   0.4834560000000000E+00   0.1000000000000000E+01
   0.1455850000000000E+00   0.0000000000000000E+00
 p   5 1.00
   0.2096420000000000E+02   0.0000000000000000E+00
   0.4803310000000000E+01   0.0000000000000000E+00
   0.1459330000000000E+01   0.0000000000000000E+00
   0.4834560000000000E+00   0.0000000000000000E+00
   0.1455850000000000E+00   0.1000000000000000E+01

    6 0
 s  11 1.00
   0.4563240000000000E+04   0.1966650000000000E-02
   0.6820240000000000E+03   0.1523060000000000E-01
   0.1549730000000000E+03   0.7612690000000000E-01
   0.4445530000000000E+02   0.2608010000000000E+00
   0.1302900000000000E+02   0.6164620000000000E+00
   0.1827730000000000E+01   0.2210060000000000E+00
   0.2096420000000000E+02   0.0000000000000000E+00
   0.4803310000000000E+01   0.0000000000000000E+00
   0.1459330000000000E+01   0.0000000000000000E+00
   0.4834560000000000E+00   0.0000000000000000E+00
   0.1455850000000000E+00   0.0000000000000000E+00
 s  11 1.00
   0.4563240000000000E+04   0.0000000000000000E+00
   0.6820240000000000E+03   0.0000000000000000E+00
   0.1549730000000000E+03   0.0000000000000000E+00
   0.4445530000000000E+02   0.0000000000000000E+00
   0.1302900000000000E+02   0.0000000000000000E+00
   0.1827730000000000E+01   0.0000000000000000E+00
   0.2096420000000000E+02   0.1146600000000000E+00
   0.4803310000000000E+01   0.9199990000000000E+00
   0.1459330000000000E+01  -0.3030680000000000E-02
   0.4834560000000000E+00   0.0000000000000000E+00
   0.1455850000000000E+00   0.0000000000000000E+00
 s  11 1.00
   0.4563240000000000E+04   0.0000000000000000E+00
   0.6820240000000000E+03   0.0000000000000000E+00
   0.1549730000000000E+03   0.0000000000000000E+00
   0.4445530000000000E+02   0.0000000000000000E+00
   0.1302900000000000E+02   0.0000000000000000E+00
   0.1827730000000000E+01   0.0000000000000000E+00
   0.2096420000000000E+02   0.0000000000000000E+00
   0.4803310000000000E+01   0.0000000000000000E+00
   0.1459330000000000E+01   0.0000000000000000E+00
   0.4834560000000000E+00   0.1000000000000000E+01
   0.1455850000000000E+00   0.0000000000000000E+00
 s  11 1.00
   0.4563240000000000E+04   0.0000000000000000E+00
   0.6820240000000000E+03   0.0000000000000000E+00
   0.1549730000000000E+03   0.0000000000000000E+00
   0.4445530000000000E+02   0.0000000000000000E+00
   0.1302900000000000E+02   0.0000000000000000E+00
   0.1827730000000000E+01   0.0000000000000000E+00
   0.2096420000000000E+02   0.0000000000000000E+00
   0.4803310000000000E+01   0.0000000000000000E+00
   0.1459330000000000E+01   0.0000000000000000E+00
   0.4834560000000000E+00   0.0000000000000000E+00
   0.1455850000000000E+00   0.1000000000000000E+01
 p   5 1.00
   0.2096420000000000E+02   0.4024870000000000E-01
   0.4803310000000000E+01   0.2375940000000000E+00
   0.1459330000000000E+01   0.8158540000000000E+00
   0.4834560000000000E+00   0.0000000000000000E+00
   0.1455850000000000E+00   0.0000000000000000E+00
 p   5 1.00
   0.2096420000000000E+02   0.0000000000000000E+00
   0.4803310000000000E+01   0.0000000000000000E+00
   0.1459330000000000E+01   0.0000000000000000E+00
   0.4834560000000000E+00   0.1000000000000000E+01
   0.1455850000000000E+00   0.0000000000000000E+00
 p   5 1.00
   0.2096420000000000E+02   0.0000000000000000E+00
   0.4803310000000000E+01   0.0000000000000000E+00
   0.1459330000000000E+01   0.0000000000000000E+00
   0.4834560000000000E+00   0.0000000000000000E+00
   0.1455850000000000E+00   0.1000000000000000E+01

    7 0
 s   5 1.00
   0.3386500000000000E+02   0.2549380000000000E-01
   0.5094790000000000E+01   0.1903730000000000E+00
   0.1158790000000000E+01   0.8521609999999999E+00
   0.3258400000000000E+00   0.0000000000000000E+00
   0.1027410000000000E+00   0.0000000000000000E+00
 s   5 1.00
   0.3386500000000000E+02   0.0000000000000000E+00
   0.5094790000000000E+01   0.0000000000000000E+00
   0.1158790000000000E+01   0.0000000000000000E+00
   0.3258400000000000E+00   0.1000000000000000E+01
   0.1027410000000000E+00   0.0000000000000000E+00
 s   5 1.00
   0.3386500000000000E+02   0.0000000000000000E+00
   0.5094790000000000E+01   0.0000000000000000E+00
   0.1158790000000000E+01   0.0000000000000000E+00
   0.3258400000000000E+00   0.0000000000000000E+00
   0.1027410000000000E+00   0.1000000000000000E+01

    8 0
 s   5 1.00
   0.3386500000000000E+02   0.2549380000000000E-01
   0.5094790000000000E+01   0.1903730000000000E+00
   0.1158790000000000E+01   0.8521609999999999E+00
   0.3258400000000000E+00   0.0000000000000000E+00
   0.1027410000000000E+00   0.0000000000000000E+00
 s   5 1.00
   0.3386500000000000E+02   0.0000000000000000E+00
   0.5094790000000000E+01   0.0000000000000000E+00
   0.1158790000000000E+01   0.0000000000000000E+00
   0.3258400000000000E+00   0.1000000000000000E+01
   0.1027410000000000E+00   0.0000000000000000E+00
 s   5 1.00
   0.3386500000000000E+02   0.0000000000000000E+00
   0.5094790000000000E+01   0.0000000000000000E+00
   0.1158790000000000E+01   0.0000000000000000E+00
   0.3258400000000000E+00   0.0000000000000000E+00
   0.1027410000000000E+00   0.1000000000000000E+01

    9 0
 s   5 1.00
   0.3386500000000000E+02   0.2549380000000000E-01
   0.5094790000000000E+01   0.1903730000000000E+00
   0.1158790000000000E+01   0.8521609999999999E+00
   0.3258400000000000E+00   0.0000000000000000E+00
   0.1027410000000000E+00   0.0000000000000000E+00
 s   5 1.00
   0.3386500000000000E+02   0.0000000000000000E+00
   0.5094790000000000E+01   0.0000000000000000E+00
   0.1158790000000000E+01   0.0000000000000000E+00
   0.3258400000000000E+00   0.1000000000000000E+01
   0.1027410000000000E+00   0.0000000000000000E+00
 s   5 1.00
   0.3386500000000000E+02   0.0000000000000000E+00
   0.5094790000000000E+01   0.0000000000000000E+00
   0.1158790000000000E+01   0.0000000000000000E+00
   0.3258400000000000E+00   0.0000000000000000E+00
   0.1027410000000000E+00   0.1000000000000000E+01

   10 0
 s   5 1.00
   0.3386500000000000E+02   0.2549380000000000E-01
   0.5094790000000000E+01   0.1903730000000000E+00
   0.1158790000000000E+01   0.8521609999999999E+00
   0.3258400000000000E+00   0.0000000000000000E+00
   0.1027410000000000E+00   0.0000000000000000E+00
 s   5 1.00
   0.3386500000000000E+02   0.0000000000000000E+00
   0.5094790000000000E+01   0.0000000000000000E+00
   0.1158790000000000E+01   0.0000000000000000E+00
   0.3258400000000000E+00   0.1000000000000000E+01
   0.1027410000000000E+00   0.0000000000000000E+00
 s   5 1.00
   0.3386500000000000E+02   0.0000000000000000E+00
   0.5094790000000000E+01   0.0000000000000000E+00
   0.1158790000000000E+01   0.0000000000000000E+00
   0.3258400000000000E+00   0.0000000000000000E+00
   0.1027410000000000E+00   0.1000000000000000E+01

   11 0
 s   5 1.00
   0.3386500000000000E+02   0.2549380000000000E-01
   0.5094790000000000E+01   0.1903730000000000E+00
   0.1158790000000000E+01   0.8521609999999999E+00
   0.3258400000000000E+00   0.0000000000000000E+00
   0.1027410000000000E+00   0.0000000000000000E+00
 s   5 1.00
   0.3386500000000000E+02   0.0000000000000000E+00
   0.5094790000000000E+01   0.0000000000000000E+00
   0.1158790000000000E+01   0.0000000000000000E+00
   0.3258400000000000E+00   0.1000000000000000E+01
   0.1027410000000000E+00   0.0000000000000000E+00
 s   5 1.00
   0.3386500000000000E+02   0.0000000000000000E+00
   0.5094790000000000E+01   0.0000000000000000E+00
   0.1158790000000000E+01   0.0000000000000000E+00
   0.3258400000000000E+00   0.0000000000000000E+00
   0.1027410000000000E+00   0.1000000000000000E+01

[SCFCONV]
scf-first  1  THROUGH  11
     -245.7723313616
     -246.5731717525
     -246.6281766546
     -246.6373616083
     -246.6383001431
     -246.6383643151
     -246.6383662596
     -246.6383664875
     -246.6383665108
     -246.6383665120
     -246.6383665120
[TITLE]
*** Dalton interface to Molden, wave function type : HF             6Jun25   00:
[5D7F]
[9G]
[MO]
Sym= A1
Ene=  -15.5717
Spin= Alpha
Occup=  2.0000
    1   0.5576555127940720E+000
    2   0.4682487535653978E+000
    3   0.5161959345468154E-002
    4  -0.2230091981872955E-002
    5   0.0000000000000000E+000
    6   0.0000000000000000E+000
    7  -0.3033111084347465E-002
    8   0.0000000000000000E+000
    9   0.0000000000000000E+000
   10   0.1149551780149657E-002
   11   0.0000000000000000E+000
   12   0.0000000000000000E+000
   13   0.2982807730277905E-003
   14   0.2310272918959235E-006
   15  -0.2549514056747989E-005
   16  -0.3240029158542295E-004
   17   0.1903558913399450E-002
   18   0.0000000000000000E+000
   19   0.0000000000000000E+000
   20  -0.2241560848483883E-004
   21   0.0000000000000000E+000
   22   0.0000000000000000E+000
   23   0.9197468178478868E-004
   24   0.0000000000000000E+000
   25   0.0000000000000000E+000
   26   0.8376359545746651E-003
   27   0.3154283637786560E-004
   28  -0.6984609007516219E-004
   29   0.3730422151358506E-003
   30   0.1176080472920511E-002
   31   0.0000000000000000E+000
   32  -0.9146281622081279E-004
   33   0.1140573986609630E-003
   34   0.0000000000000000E+000
   35  -0.3908092997670941E-003
   36   0.1386069101730444E-006
   37   0.0000000000000000E+000
   38  -0.7871886192214676E-003
   39  -0.1813934914461810E-003
   40   0.3154283637786560E-004
   41  -0.6984609007516219E-004
   42   0.3730422151358506E-003
   43   0.1176080472920511E-002
   44   0.0000000000000000E+000
   45   0.9146281622081279E-004
   46   0.1140573986609630E-003
   47   0.0000000000000000E+000
   48   0.3908092997670941E-003
   49   0.1386069101730444E-006
   50   0.0000000000000000E+000
   51   0.7871886192214676E-003
   52  -0.1813934914461810E-003
   53   0.4023621173876551E-006
   54   0.8345765747894483E-005
   55   0.4546630421501809E-004
   56  -0.1390676956335132E-002
   57   0.0000000000000000E+000
   58  -0.2683579426706119E-004
   59   0.1904302531299955E-004
   60   0.0000000000000000E+000
   61   0.1004842793525583E-003
   62  -0.1174610631257811E-003
   63   0.0000000000000000E+000
   64   0.1035222117115622E-002
   65  -0.2399414005379984E-003
   66   0.4023621173876551E-006
   67   0.8345765747894483E-005
   68   0.4546630421501809E-004
   69  -0.1390676956335132E-002
   70   0.0000000000000000E+000
   71   0.2683579426706119E-004
   72   0.1904302531299955E-004
   73   0.0000000000000000E+000
   74  -0.1004842793525583E-003
   75  -0.1174610631257811E-003
   76   0.0000000000000000E+000
   77  -0.1035222117115622E-002
   78  -0.2399414005379984E-003
   79  -0.1776565755124214E-005
   80   0.8615465709844913E-004
   81   0.1317886601632183E-003
   82  -0.6540309952647273E-005
   83   0.1621467195189173E-003
   84   0.1179465427204653E-003
   85  -0.6540309952647273E-005
   86   0.1621467195189173E-003
   87   0.1179465427204653E-003
   88   0.1124081406754287E-004
   89  -0.2222165907774443E-003
   90  -0.1816449822859749E-003
   91   0.1124081406754287E-004
   92  -0.2222165907774443E-003
   93  -0.1816449822859749E-003
Sym= A1
Ene=  -11.2797
Spin= Alpha
Occup=  2.0000
    1  -0.2491107889117700E-003
    2  -0.3698680173780351E-003
    3   0.7814848151147838E-003
    4  -0.2500999444571772E-003
    5   0.0000000000000000E+000
    6   0.0000000000000000E+000
    7  -0.1646588596638645E-003
    8   0.0000000000000000E+000
    9   0.0000000000000000E+000
   10  -0.3863740483081161E-003
   11   0.0000000000000000E+000
   12   0.0000000000000000E+000
   13   0.9448891571025139E-004
   14   0.4972243432472036E-003
   15   0.4282102608076395E-003
   16  -0.9896347247133526E-004
   17   0.6568823788193229E-003
   18   0.0000000000000000E+000
   19   0.0000000000000000E+000
   20   0.2144994249551606E-004
   21   0.0000000000000000E+000
   22   0.0000000000000000E+000
   23  -0.1001490767813204E-003
   24   0.0000000000000000E+000
   25   0.0000000000000000E+000
   26   0.5521899751425308E-003
   27   0.3981982759575733E+000
   28   0.3298496948154899E+000
   29   0.3166929106662317E-002
   30  -0.6951384316898718E-003
   31   0.0000000000000000E+000
   32  -0.4998716691163821E-003
   33   0.9752754228525945E-004
   34   0.0000000000000000E+000
   35   0.2166460207562911E-003
   36  -0.1134565025727023E-003
   37   0.0000000000000000E+000
   38  -0.3607479533139045E-003
   39   0.1183000977248232E-003
   40   0.3981982759575733E+000
   41   0.3298496948154899E+000
   42   0.3166929106662317E-002
   43  -0.6951384316898718E-003
   44   0.0000000000000000E+000
   45   0.4998716691163821E-003
   46   0.9752754228525945E-004
   47   0.0000000000000000E+000
   48  -0.2166460207562911E-003
   49  -0.1134565025727023E-003
   50   0.0000000000000000E+000
   51   0.3607479533139045E-003
   52   0.1183000977248232E-003
   53   0.8578980675982359E-002
   54   0.7043852605880222E-002
   55   0.3466880328443393E-003
   56  -0.7245597053616487E-004
   57   0.0000000000000000E+000
   58   0.5935422068939924E-005
   59   0.1479162234688295E-003
   60   0.0000000000000000E+000
   61  -0.4434280757035188E-004
   62   0.1860856100488472E-003
   63   0.0000000000000000E+000
   64   0.4312343646000383E-003
   65   0.4754831405178537E-005
   66   0.8578980675982359E-002
   67   0.7043852605880222E-002
   68   0.3466880328443393E-003
   69  -0.7245597053616487E-004
   70   0.0000000000000000E+000
   71  -0.5935422068939924E-005
   72   0.1479162234688295E-003
   73   0.0000000000000000E+000
   74   0.4434280757035188E-004
   75   0.1860856100488472E-003
   76   0.0000000000000000E+000
   77  -0.4312343646000383E-003
   78   0.4754831405178537E-005
   79  -0.2000757395669273E-004
   80   0.1095441995377491E-003
   81   0.1528155884061905E-003
   82   0.2721263809075510E-003
   83   0.9389448178751213E-004
   84   0.2957808630652790E-003
   85   0.2721263809075510E-003
   86   0.9389448178751213E-004
   87   0.2957808630652790E-003
   88   0.2166359038454723E-004
   89  -0.1424854169407724E-003
   90  -0.7251804818849559E-004
   91   0.2166359038454723E-004
   92  -0.1424854169407724E-003