[Molden Format]
made by pyscf v[2.14.0]
[Atoms] (AU)
C   1   6    -0.28270302830000    -1.40274370260000     0.00000000000000
C   2   6     0.00000000000000     1.36060281000000     0.00000000000000
C   3   6     2.32266238020000     2.39277121950000     0.00000000000000
O   4   8    -2.32681977770000    -2.46495875740000     0.00000000000000
H   5   1     1.51310370830000    -2.47932067600000     0.00000000000000
H   6   1    -1.71322570490000     2.48347807350000     0.00000000000000
H   7   1     2.59194835300000     4.42725036560000     0.00000000000000
H   8   1     3.98203089060000     1.18542519820000     0.00000000000000
[GTO]
1 0
 s    9 1.00
                 33980  9.1634545701884e-05
                  5089  0.00070890901290249
                  1157   0.003718751398649
                 326.6   0.015467105736054
                 106.1   0.053298075488517
                 38.11    0.14806833520486
                 14.75     0.3077621740375
                 6.035    0.40212964454196
                  2.53    0.21856450306747
 s    9 1.00
                 33980  -5.5710360210471e-05
                  5089  -0.00044275075746216
                  1157  -0.0023017175139589
                 326.6  -0.0097463809126108
                 106.1  -0.033754614039102
                 38.11   -0.10016136340998
                 14.75   -0.22628082255382
                 6.035   -0.41487505248738
                  2.53   -0.34604636850945
 s    1 1.00
                0.7355                   1
 s    1 1.00
                0.2905                   1
 s    1 1.00
                0.1111                   1
 p    3 1.00
                 34.51   0.031687855209339
                 7.915     0.2128943072562
                 2.368    0.83958675201643
 p    1 1.00
                0.8132                   1
 p    1 1.00
                 0.289                   1
 p    1 1.00
                0.1007                   1
 d    1 1.00
                 1.848                   1
 d    1 1.00
                 0.649                   1
 d    1 1.00
                 0.228                   1
 f    1 1.00
                 1.419                   1
 f    1 1.00
                 0.485                   1
 g    1 1.00
                 1.011                   1

2 0
 s    9 1.00
                 33980  9.1634545701884e-05
                  5089  0.00070890901290249
                  1157   0.003718751398649
                 326.6   0.015467105736054
                 106.1   0.053298075488517
                 38.11    0.14806833520486
                 14.75     0.3077621740375
                 6.035    0.40212964454196
                  2.53    0.21856450306747
 s    9 1.00
                 33980  -5.5710360210471e-05
                  5089  -0.00044275075746216
                  1157  -0.0023017175139589
                 326.6  -0.0097463809126108
                 106.1  -0.033754614039102
                 38.11   -0.10016136340998
                 14.75   -0.22628082255382
                 6.035   -0.41487505248738
                  2.53   -0.34604636850945
 s    1 1.00
                0.7355                   1
 s    1 1.00
                0.2905                   1
 s    1 1.00
                0.1111                   1
 p    3 1.00
                 34.51   0.031687855209339
                 7.915     0.2128943072562
                 2.368    0.83958675201643
 p    1 1.00
                0.8132                   1
 p    1 1.00
                 0.289                   1
 p    1 1.00
                0.1007                   1
 d    1 1.00
                 1.848                   1
 d    1 1.00
                 0.649                   1
 d    1 1.00
                 0.228                   1
 f    1 1.00
                 1.419                   1
 f    1 1.00
                 0.485                   1
 g    1 1.00
                 1.011                   1

3 0
 s    9 1.00
                 33980  9.1634545701884e-05
                  5089  0.00070890901290249
                  1157   0.003718751398649
                 326.6   0.015467105736054
                 106.1   0.053298075488517
                 38.11    0.14806833520486
                 14.75     0.3077621740375
                 6.035    0.40212964454196
                  2.53    0.21856450306747
 s    9 1.00
                 33980  -5.5710360210471e-05
                  5089  -0.00044275075746216
                  1157  -0.0023017175139589
                 326.6  -0.0097463809126108
                 106.1  -0.033754614039102
                 38.11   -0.10016136340998
                 14.75   -0.22628082255382
                 6.035   -0.41487505248738
                  2.53   -0.34604636850945
 s    1 1.00
                0.7355                   1
 s    1 1.00
                0.2905                   1
 s    1 1.00
                0.1111                   1
 p    3 1.00
                 34.51   0.031687855209339
                 7.915     0.2128943072562
                 2.368    0.83958675201643
 p    1 1.00
                0.8132                   1
 p    1 1.00
                 0.289                   1
 p    1 1.00
                0.1007                   1
 d    1 1.00
                 1.848                   1
 d    1 1.00
                 0.649                   1
 d    1 1.00
                 0.228                   1
 f    1 1.00
                 1.419                   1
 f    1 1.00
                 0.485                   1
 g    1 1.00
                 1.011                   1

4 0
 s    9 1.00
                 61420  9.0738926792129e-05
                  9199  0.00070373078778785
                  2091  0.0036940825307373
                 590.9   0.015342944310251
                 192.3    0.05285340843582
                 69.32    0.14711905484927
                 26.97    0.30776425905235
                  11.1    0.40177986931198
                 4.682    0.21876147039285
 s    9 1.00
                 61420  -5.6106385876036e-05
                  9199  -0.00044604576771449
                  2091  -0.0023256096945617
                 590.9  -0.0098410600826567
                 192.3  -0.034101461335455
                 69.32   -0.10172368291255
                 26.97    -0.2328190588312
                  11.1   -0.42666101139432
                 4.682   -0.32354027947345
 s    1 1.00
                 1.428                   1
 s    1 1.00
                0.5547                   1
 s    1 1.00
                0.2067                   1
 p    3 1.00
                 63.42   0.031327502519451
                 14.66    0.21665424847957
                 4.459    0.83524284223889
 p    1 1.00
                 1.531                   1
 p    1 1.00
                0.5302                   1
 p    1 1.00
                 0.175                   1
 d    1 1.00
                 3.775                   1
 d    1 1.00
                   1.3                   1
 d    1 1.00
                 0.444                   1
 f    1 1.00
                 2.666                   1
 f    1 1.00
                 0.859                   1
 g    1 1.00
                 1.846                   1

5 0
 s    3 1.00
                 82.64   0.022950757792906
                 12.41    0.17554011805411
                 2.824    0.86470355096212
 s    1 1.00
                0.7977                   1
 s    1 1.00
                0.2581                   1
 s    1 1.00
               0.08989                   1
 p    1 1.00
                 2.292                   1
 p    1 1.00
                 0.838                   1
 p    1 1.00
                 0.292                   1
 d    1 1.00
                 2.062                   1
 d    1 1.00
                 0.662                   1
 f    1 1.00
                 1.397                   1

6 0
 s    3 1.00
                 82.64   0.022950757792906
                 12.41    0.17554011805411
                 2.824    0.86470355096212
 s    1 1.00
                0.7977                   1
 s    1 1.00
                0.2581                   1
 s    1 1.00
               0.08989                   1
 p    1 1.00
                 2.292                   1
 p    1 1.00
                 0.838                   1
 p    1 1.00
                 0.292                   1
 d    1 1.00
                 2.062                   1
 d    1 1.00
                 0.662                   1
 f    1 1.00
                 1.397                   1

7 0
 s    3 1.00
                 82.64   0.022950757792906
                 12.41    0.17554011805411
                 2.824    0.86470355096212
 s    1 1.00
                0.7977                   1
 s    1 1.00
                0.2581                   1
 s    1 1.00
               0.08989                   1
 p    1 1.00
                 2.292                   1
 p    1 1.00
                 0.838                   1
 p    1 1.00
                 0.292                   1
 d    1 1.00
                 2.062                   1
 d    1 1.00
                 0.662                   1
 f    1 1.00
                 1.397                   1

8 0
 s    3 1.00
                 82.64   0.022950757792906
                 12.41    0.17554011805411
                 2.824    0.86470355096212
 s    1 1.00
                0.7977                   1
 s    1 1.00
                0.2581                   1
 s    1 1.00
               0.08989                   1
 p    1 1.00
                 2.292                   1
 p    1 1.00
                 0.838                   1
 p    1 1.00
                 0.292                   1
 d    1 1.00
                 2.062                   1
 d    1 1.00
                 0.662                   1
 f    1 1.00
                 1.397                   1

[6d]
[10f]
[15g]

[MO]
 Sym= A
 Ene=    -12.72417179
 Spin= Alpha
 Occup=    2.00000
   1    -0.023613606699706
   2     -0.19069276569027
   3     -0.17580123070239
   4     -0.31567622323779
   5     -0.17198616566418
   6      0.41809506307504
   7      0.31815609879807
   8    6.2850359474026e-15
   9      0.28883390006126
  10      0.21323766112113
  11    9.6115387397125e-16
  12     0.021236148547399
  13     -0.14724509087716
  14    8.2107449509637e-16
  15    0.0039211340526246
  16    -0.020570136833421
  17    -4.0275451970323e-18
  18    -0.064562477894951
  19      0.06321561252816
  20     0.031452241550505
  21    -0.017337057663317
  22    -3.9627466629201e-16
  23    1.7701633229207e-16
  24      0.23868929183292
  25      0.15743146554617
  26      0.17544979574927
  27     -0.03084384677201
  28    -3.1682152502283e-16
  29    -7.9433467359212e-16
  30      0.15031535159889
  31     0.068926931984764
  32     0.063273389450546
  33    0.0060199807223118
  34    -1.4813463875994e-16
  35    -1.1500040548868e-16
  36     0.045766042359272
  37     0.030174966609642
  38    1.2209357819865e-15
  39     0.023410714449712
  40     0.031274764410502
  41    8.9523889824545e-16
  42    -0.0073306924002265
  43    -0.0042370519625542
  44    9.5196422534108e-16
  45    3.6859038994205e-16
  46    -0.0030608793617948
  47     0.020647360636144
  48    -2.420456766181e-16
  49    -0.00047168855705164
  50    0.0016401410410973
  51    -8.4133023182323e-19
  52    -0.023480791142623
  53    -0.0022846491571275
  54    4.2665955663384e-17
  55    -2.4092920684221e-19
  56    -0.096532668392929
  57     0.027262677260792
  58    -0.022096853342386
  59    -0.020720805507864
  60    -2.6196695973035e-16
  61     0.014716634788303
  62    3.1119420183279e-16
  63    -1.4055716020021e-16
  64    2.3852663025338e-16
  65    -0.029645394685225
  66    -0.026873546543346
  67    -0.0054008291703497
  68    -3.2668395386469e-17
  69    -7.4908529819309e-17
  70    0.0041341073601201
  71     0.021927835058617
  72      0.17988308640417
  73      0.18751633715066
  74      0.24076068310493
  75      0.19015478359732
  76     0.039410277094855
  77     -0.12450463037027
  78    -2.4195438468181e-17
  79     0.059583439678029
  80    -0.060730897616671
  81    -1.0264508642741e-17
  82     -0.10628051589091
  83     -0.23606506071465
  84    -1.7905301100467e-16
  85    0.0020112611773247
  86    -0.027060877508716
  87    -5.2835359868443e-18
  88    -0.018745924428014
  89     0.011328415116651
  90    -0.031049598778248
  91    -0.0064644641368699
  92    -2.8871432304425e-17
  93    -1.9155957080054e-17
  94     -0.14044950117949
  95      -0.1755305978331
  96      -0.1331543924019
  97    0.0023727054005825
  98    7.6547692913825e-17
  99    1.1485575238853e-16
 100      -0.1419696377114
 101     -0.01752386100244
 102    -0.070068794840384
 103    -0.011570872511016
 104    -3.617353972897e-17
 105    8.0043676838771e-17
 106     0.008004115546676
 107    -0.020306545008226
 108    1.5718036417019e-18
 109    0.0012248945024941
 110    -0.00020485834477871
 111    -1.8485830724539e-18
 112    0.0009890777404053
 113    0.0016563930613287
 114    1.2010225231946e-17
 115    4.2507854205056e-18
 116     0.042986298647003
 117     0.050508131501775
 118    6.2946085674504e-17
 119     0.020164882431336
 120     0.004268480660088
 121    3.3579188375781e-17
 122     0.014109561632479
 123      0.03187376936079
 124    -2.9888166183146e-17
 125    2.3921477677087e-17
 126     0.018799284095428
 127     0.061834216538045
 128     0.012225226724843
 129    -0.0044311047786749
 130    -3.2281054057254e-17
 131    -0.0018637122835786
 132    -4.5948521690626e-17
 133    -2.3513545966539e-17
 134    -3.337956257055e-17
 135     0.013592924572435
 136    0.0076125302661286
 137     0.014553726317207
 138    -1.7650289359251e-17
 139    -7.4602581670746e-18
 140    -0.0012120913710306
 141    0.00096494004132994
 142     0.014535159864699
 143     0.015614564833917
 144     0.083171070850033
 145    -0.044523381903722
 146    -0.0079606119093021
 147    -0.0064023242039548
 148    3.5620313530895e-18
 149     0.008886326520474
 150    0.0036171779328933
 151    -2.8419206877639e-17
 152     -0.13758328595349
 153    -0.073742204710973
 154    6.6650095972168e-17
 155    0.0012717502011262
 156    0.0048359187204592
 157    5.6731054009365e-18
 158    -0.00098797011730153
 159    -0.0023534503840231
 160    -0.0015442041070151
 161    0.0040957795980015
 162    -1.5330497392002e-18
 163    3.9075188258676e-18
 164     0.011472739870924
 165    -0.0021489546038298
 166    -0.020875995386836
 167    -9.9564709835522e-05
 168    1.4998507248734e-17
 169    -2.1978288478834e-17
 170     0.017225448179641
 171     -0.04719213451538
 172     0.012168551730933
 173     0.010574780925665
 174    2.111726963932e-18
 175    -7.8275987561168e-18
 176    -0.0014618117948729
 177    -0.00087845906905697
 178    2.8922563387705e-18
 179    -0.0010297161112743
 180    -0.0025057835781452
 181    2.1005383260564e-18
 182    0.0012617972979961
 183    0.00072598457825141
 184    2.0149840966869e-18
 185    -1.4946057323014e-18
 186     0.024744056852246
 187     0.026351466897607
 188    -2.0463633579556e-17
 189     0.025031852046342
 190    0.0017890722092228
 191    -2.0887618447627e-17
 192     0.012773581533872
 193    0.0047770925990026
 194    -1.9076635453423e-17
 195    -7.4938342645378e-18
 196    -0.0013205232572369
 197    -0.00099973798338347
 198    0.0052592002873925
 199    0.0025884767156994
 200    2.0209727659626e-18
 201    0.0026844716221799
 202    4.5896812132133e-18
 203    -8.0897089612284e-19
 204    4.6126411278786e-18
 205    -0.0014195849559519
 206    0.0012815831978464
 207    0.00097331769242588
 208    2.6508355864177e-18
 209    -4.0951902855061e-18
 210    0.0010469125778488
 211     0.030524929824481
 212      0.19314542472571
 213      0.25947299756282
 214      0.23917415841942
 215     0.016392997263244
 216      0.15742495540733
 217     0.068011436234658
 218    -1.6680964968049e-15
 219      0.19349095406162
 220     0.099455127192619
 221    -1.1312206279357e-15
 222     -0.22789136095775
 223     -0.14045836240206
 224    2.754642519968e-16
 225    -0.012776388592394
 226    -0.0055557878136376
 227    3.8064264292566e-17
 228    -0.0021615037377558
 229    -0.0023824406959926
 230    -0.0023335042574464
 231    1.989164678602e-05
 232    -4.5599748846753e-17
 233    -4.8854985600333e-17
 234     -0.13519830367825
 235     -0.12868349662441
 236     -0.13167762636037
 237    0.0015818142511568
 238    2.5215063820404e-16
 239    1.4336626090783e-16
 240    -0.088084610582166
 241    -0.062716938376106
 242    -0.056932388082043
 243    -0.019152341035844
 244    2.0383897463034e-16
 245    9.207231354853e-17
 246    0.0048459934893096
 247    0.0049759324000186
 248    -9.8433577807929e-17
 249    0.0025284808405661
 250    -0.0023726211937672
 251    -9.9013762447898e-18
 252    0.0053542393227573
 253    0.0027833315543849
 254    -3.7476524854016e-17
 255    1.1761689919175e-17
 256     0.084722000366416
 257     0.062399063777551
 258    -6.9167332761952e-17
 259     0.040243698473238
 260     0.016181080515497
 261    1.3606130504773e-16
 262     0.047142001982095
 263     0.028973703653105
 264    1.1297275526305e-18
 265    7.9563538615662e-17
 266     0.033084625732636
 267     0.035419623665161
 268     0.034384592981057
 269    -0.0062134331298857
 270    -5.4666603795338e-18
 271    0.00018742962421022
 272    -5.1658771035524e-17
 273    -8.4910264664935e-17
 274    -5.4331316158764e-17
 275     0.017442285513383
 276     0.024520251074539
 277     0.021049516412483
 278    1.1752858756343e-17
 279    -1.7169907438051e-17
 280    0.0021830131451509
 281    0.00055894356559987
 282    -0.022154110804823
 283     -0.11249872152504
 284    0.0060253812144544
 285    -0.011545678411113
 286    0.0059801242047872
 287    4.8709163189266e-17
 288     0.055928132911507
 289    -0.030536762545856
 290    -1.9921732834823e-16
 291     0.025210973999671
 292    -0.026043059611553
 293    -3.2958198393746e-18
 294    0.00031749106557711
 295    -0.00029884708199893
 296    -0.00050466647101672
 297    0.00057029089821687
 298    1.028044548194e-17
 299    -5.0917414474804e-18
 300    -0.010782486063653
 301    -0.0063404318097268
 302    0.00031164617753753
 303    0.0086477617179331
 304    7.1126769954888e-17
 305    -4.8219014998746e-17
 306    -0.017600255566333
 307    0.0079664682396545
 308    6.0873612054879e-17
 309    -0.006073486898917
 310    0.0032817076824879
 311    -4.1077715244449e-18
 312    -0.0065466289355588
 313    0.0031721115710452
 314    2.3003741500323e-17
 315    2.0958920834746e-17
 316    -0.00044690968177435
 317     0.021200810781509
 318      0.06446955814835
 319    -0.005497391512133
 320    -0.0058383014666094
 321     0.002169934042963
 322    -2.2910679813604e-17
 323      0.02978652627004
 324    -0.011721872720328
 325    9.0909244979997e-17
 326    0.0099019553139877
 327    -0.020062804540493
 328    -3.3449133845746e-17
 329    -0.00012214084151705
 330    -0.00067780618423932
 331    -6.5469189011748e-05
 332    0.00070201261035889
 333    3.8443173604345e-19
 334    -1.3816790253256e-18
 335    0.0052565463022599
 336    0.0018143251429196
 337    0.0024555211234376
 338    -0.0040132889218435
 339    1.0304121473351e-17
 340    8.0037336641407e-18
 341    -0.0080422828506781
 342    0.0031284181990979
 343    -3.4614188299386e-17
 344    -0.0041974788525819
 345     0.001616034018512
 346    -1.0129294054252e-17
 347    -0.0026054660119113
 348     0.000785165444772
 349    -1.703480216164e-17
 350    1.1146879533628e-18
 351    0.00020649907479257
 352    -0.013755132536812
 353     0.081855383020085
 354    0.0010954053300105
 355    0.0025004119677188
 356    -0.0016719364093879
 357    -2.0933281569102e-17
 358    -0.010013853106047
 359    0.0094991626912932
 360    7.7638813439416e-17
 361    -0.0048943295689934
 362    -0.022447035578112
 363    -1.1940792677331e-17
 364     9.72517206639e-05
 365    -0.00016253643781503
 366    0.00017170232162884
 367    -4.9906345191879e-05
 368    -4.7342711396414e-19
 369    5.3570600510285e-19
 370    -0.0017993355563535
 371    -0.0014762182246153
 372    -0.0030438787416572
 373    0.0025259767578514
 374     1.38737095674e-18
 375    -7.8229506637613e-18
 376    0.0035240088753394
 377    -0.0023828272905354
 378    -3.1447588180361e-17
 379    0.0012661538681907
 380    -0.00098888379013835
 381    -1.4079509930916e-17
 382    0.0014940515653872
 383    -0.00085454638136247
 384    -1.2425043894103e-17
 385    9.607703196398e-20
 386    0.00017521646178853
 387    -0.0091575474764745
 388     0.045321554922435
 389    0.0023414807629309
 390    -0.0010343118776737
 391    0.0017897169589128
 392    -2.1113218772343e-20
 393    0.0052133420287457
 394    -0.007465516654715
 395    -9.1162831205793e-19
 396    -0.013476812627259
 397    0.0015830346606148
 398    -6.7096062277015e-18
 399    -7.0749454409649e-05
 400    -3.546871142017e-05
 401    0.00010982988078026
 402    2.2818974610911e-05
 403    -7.1853229724891e-19
 404    -1.0578979447053e-20
 405    -0.0014472988722124
 406    -0.001334130564569
 407    -0.0023905162606687
 408    0.0016432238190809
 409    4.6001244815406e-18
 410    -2.5089846509629e-18
 411    -0.0010770724549842
 412    0.0025298125904623
 413    -1.3613441062474e-19
 414    -0.00038329597374287
 415    0.00073131232548993
 416    -4.0353554416041e-19
 417    -0.00061624276935676
 418    0.00087929104181302
 419    -5.2259994112219e-19
 420    1.0085307723575e-18
 Sym= A
 Ene=    -12.41466226
 Spin= Alpha
 Occup=    2.00000
   1    -0.0024423451858329
   2    -0.013002114293518
   3    0.0039502167924949
   4     0.021423830238549
   5     -0.12611674206245
   6    -0.013326296458787
   7     -0.24067472521688
   8    -6.3462473602521e-13
   9    -0.013051939697251
  10     -0.14422493654085
  11    -3.1595796766734e-13
  12     0.024697254804416
  13    -0.044047650799173
  14    -6.8630102654325e-14
  15    -0.0065695337326285
  16    -0.028572610793725
  17    2.1203950311004e-15
  18    0.0058866868559613
  19    -0.012863275753652
  20    0.0011555210223859
  21     0.031708153534727
  22    6.9197274027282e-14
  23    -2.3963045145582e-14
  24     0.024065811992476
  25     0.060957939936853
  26     0.017437070031046
  27    -0.019180215828452
  28    -4.1894155564132e-14
  29    1.3813916427883e-14
  30     0.063912526978644
  31     0.024409543309149
  32     0.030710781966175
  33    -0.0063851198900424
  34    2.3868938418631e-15
  35    -3.25456448466e-15
  36    0.0029228074141222
  37    -0.018339641344957
  38    -2.2479637948137e-14
  39    -0.0043641231146555
  40     -0.01508470072549
  41    -4.7876446059391e-14
  42     0.001094985827913
  43    -0.00037109023447588
  44    -3.7486600123138e-14
  45    -1.3784690110986e-14
  46     -0.01850222917784
  47     0.010963359572661
  48    4.7468450752776e-14
  49    0.0019225678863702
  50    -0.025010161562445
  51    5.6217761762948e-15
  52    0.0012875739242213
  53    0.0099634515764148
  54    7.0315521080472e-15
  55    -1.0047755430626e-15
  56    -0.0023641641755488
  57    -0.033015480944826
  58    -0.0024898101987577
  59     0.022637413691732
  60    4.3357921893276e-14
  61     0.016089757179294
  62    -2.440202499976e-14
  63    2.780622800349e-14
  64    -1.3729807785085e-14
  65    0.0062050580019744
  66    -0.0010898253095351
  67    -0.007649886371689
  68    4.0547684895761e-15
  69    1.4555402641113e-14
  70    0.0057647144567729
  71     0.056459201979044
  72      0.42198862729661
  73      0.43476981543556
  74      0.65777955542666
  75      0.34707928956885
  76      0.38567485365469
  77    -0.033385116703856
  78    -3.3307124433502e-14
  79      0.26708784622207
  80    -0.055857319957468
  81    -2.2200107046154e-14
  82      0.13174992084932
  83    -0.057060090310057
  84    5.8921594793776e-15
  85     0.020794998939182
  86    -0.016620196781153
  87    6.4978773109442e-16
  88     0.010104538826219
  89    -0.047639040324111
  90    -0.062499565855792
  91    -0.027439883767819
  92    -1.4832492491171e-15
  93    6.8562571971487e-15
  94     -0.35495289778259
  95     -0.32185738077388
  96     -0.34915824732053
  97     0.081429001178003
  98    1.569592493885e-15
  99    -1.8936479103123e-16
 100     -0.18270375727419
 101     -0.17937776763919
 102     -0.14228283024683
 103     0.039874193054774
 104    -1.139004779365e-15
 105    -1.3754754241514e-15
 106     0.052638578137431
 107    -0.011139416599286
 108    -9.4317004107861e-16
 109     0.018005798952103
 110     0.011886487216797
 111    -1.6080713377871e-15
 112    0.00074369350294531
 113    -0.0020852858045154
 114    -6.3239964829379e-15
 115    -6.741443978748e-16
 116     0.030601161710943
 117    -0.012858340992185
 118    -1.1522582693931e-15
 119     0.012913377510789
 120    -0.024887782980072
 121    -2.0329446013652e-15
 122    -0.020519763089437
 123    0.0035456832541986
 124    -4.9709406740008e-15
 125    -5.4204980132542e-16
 126     0.092598813951462
 127     0.042711404071753
 128     0.046081076597963
 129    -0.014534912867608
 130    -1.2200294682019e-15
 131    -0.037223028862146
 132    6.9318165855831e-15
 133    -6.9345743070498e-16
 134    2.0717903964073e-15
 135      0.02843969143455
 136     0.031839625547892
 137     0.024329615104806
 138    1.9141939329056e-15
 139    -3.9801799695321e-16
 140     -0.01389735301313
 141     0.010514657147529
 142       0.1371021427114
 143      0.20278983527982
 144       0.2153385072311
 145    -0.070469188108382
 146    -0.086038946237544
 147    -0.052032486470472
 148    -5.5431490332087e-16
 149    -0.068310102189702
 150    -0.029342301988872
 151    -5.7917788858192e-16
 152     0.042603068807335
 153    -0.043930600635589
 154    3.7721333533626e-15
 155     0.018156191590459
 156    0.0090279129673511
 157    -6.1151137118668e-16
 158    0.0030352650691884
 159     -0.01358049686705
 160    -0.038529910547784
 161     0.023578298249727
 162    5.8295400247119e-16
 163    -6.0337465793897e-17
 164    -0.048654026784908
 165    -0.083311271915149
 166    -0.037625176972242
 167    0.0053861092884397
 168    -1.628554651461e-15
 169    1.3267622459105e-15
 170     0.023268213474646
 171     0.041967080068523
 172    -0.0041547296575473
 173     -0.02303398055158
 174    -4.7279314809869e-16
 175    -8.8926945554743e-16
 176    -0.017425095099717
 177    -0.0031592244377151
 178    6.5870336243016e-17
 179    -0.0075728286873718
 180    -0.016501520613153
 181    -3.8803750590822e-16
 182    0.0024204514222769
 183    0.0018118706890243
 184    -2.4051061376723e-16
 185    -2.2157089352941e-16
 186    -0.010754642945194
 187     0.029885475322366
 188    -1.7809646205251e-15
 189    0.0055430789918137
 190    -0.0020531125655067
 191    1.3482841866239e-16
 192    0.0047602378697968
 193     0.010807231028848
 194    1.1370667067645e-15
 195    -1.7776014014648e-16
 196     0.015810543048087
 197      0.01671816534353
 198    -0.016169294262195
 199     0.012666843425081
 200    1.1884929325745e-15
 201    0.0058159347718582
 202    -1.8637141698414e-16
 203    6.6849862600397e-16
 204    -2.5522179664342e-16
 205     0.013774342084733
 206    -0.0047902178045037
 207    -0.0010969835697682
 208    -2.6032808977587e-16
 209    3.5226289285804e-16
 210    0.00097062572380953
 211    -0.0047518653755258
 212    -0.031949579285321
 213    -0.042028007117266
 214     -0.07933982479671
 215    -0.029221424911752
 216    -0.034284188074329
 217    0.0042857469996452
 218    5.5987190735556e-14
 219     -0.04125997974524
 220    -0.0037683192604701
 221    2.8092504279828e-14
 222     0.021140799247102
 223    -0.0078514159538801
 224    1.8813157844141e-15
 225    -0.006635483216972
 226    -0.00084844003166951
 227    1.1835230375839e-15
 228    0.0010153029465429
 229    -0.0008274185198383
 230    -0.00046044025121781
 231    -0.00014346122845281
 232    -3.6283773333823e-15
 233    -1.6497728738089e-15
 234     0.025445331145777
 235     0.021186687619747
 236     0.023520078802803
 237    -0.0013988603587219
 238    -2.6777976068199e-15
 239    -1.7152837602646e-15
 240    0.0087762575722965
 241    0.0082952677749395
 242    0.0053683848917953
 243    0.00064461172604323
 244    -4.2717704811055e-15
 245    -2.5988935450573e-15
 246    0.0009384316907952
 247    0.00031616209546181
 248    6.2566685766971e-15
 249    -0.0014199818971157
 250    0.0014379412331108
 251    -1.6645627297417e-15
 252    -0.00090886398235017
 253    0.00046558406233787
 254    1.3281676895745e-15
 255    -2.9655962307788e-15
 256    -0.013787831475984
 257    -0.0011465347031807
 258    -2.6317530213226e-17
 259    -0.0072978705108768
 260    0.0011365365554055
 261    -7.1857632762487e-15
 262    -0.0090568023494605
 263    -0.0011068633410682
 264    -2.8743970189275e-15
 265    -5.0645767806913e-15
 266    -0.0057878631796452
 267    -0.0068812509344586
 268    -0.0060576162606919
 269    0.0013227929860772
 270    -6.7690859629632e-15
 271    -0.0014910578141536
 272    -1.9027286234943e-15
 273    -1.1233676332568e-15
 274    -5.0622645292874e-16
 275    -0.0041590265063345
 276    -0.0054267229412962
 277    -0.0036806779484483
 278    -4.2549538192535e-15
 279    -3.1286284883283e-15
 280    -0.00078909958579921
 281    0.00062719998619229
 282    -0.012454187358292
 283    -0.050828609406141
 284     0.001835097189034
 285    -0.0048613673656798
 286    -0.0026828839375753
 287    -4.4647372034649e-15
 288     0.024054472351626
 289     0.011356690868019
 290    1.5778056012751e-14
 291     0.017668833941035
 292    -0.0076470207630741
 293    2.2105571237441e-15
 294    -0.0010797612518669
 295    0.00031867989686194
 296    3.1512772267568e-05
 297    -0.00023458637838971
 298    1.1995962997562e-16
 299    -3.1505791443325e-16
 300    -0.010377434377002
 301    0.0046056538911381
 302    -0.0032101715570801
 303    0.0018087964012991
 304    -3.5625417707276e-15