[Molden Format]
made by pyscf v[2.14.0]
[Atoms] (AU)
C   1   6    -0.28270302830000    -1.40274370260000     0.00000000000000
C   2   6     0.00000000000000     1.36060281000000     0.00000000000000
C   3   6     2.32266238020000     2.39277121950000     0.00000000000000
O   4   8    -2.32681977770000    -2.46495875740000     0.00000000000000
H   5   1     1.51310370830000    -2.47932067600000     0.00000000000000
H   6   1    -1.71322570490000     2.48347807350000     0.00000000000000
H   7   1     2.59194835300000     4.42725036560000     0.00000000000000
H   8   1     3.98203089060000     1.18542519820000     0.00000000000000
[GTO]
1 0
 s    9 1.00
                 33980  9.1634545701884e-05
                  5089  0.00070890901290249
                  1157   0.003718751398649
                 326.6   0.015467105736054
                 106.1   0.053298075488517
                 38.11    0.14806833520486
                 14.75     0.3077621740375
                 6.035    0.40212964454196
                  2.53    0.21856450306747
 s    9 1.00
                 33980  -5.5710360210471e-05
                  5089  -0.00044275075746216
                  1157  -0.0023017175139589
                 326.6  -0.0097463809126108
                 106.1  -0.033754614039102
                 38.11   -0.10016136340998
                 14.75   -0.22628082255382
                 6.035   -0.41487505248738
                  2.53   -0.34604636850945
 s    1 1.00
                0.7355                   1
 s    1 1.00
                0.2905                   1
 s    1 1.00
                0.1111                   1
 p    3 1.00
                 34.51   0.031687855209339
                 7.915     0.2128943072562
                 2.368    0.83958675201643
 p    1 1.00
                0.8132                   1
 p    1 1.00
                 0.289                   1
 p    1 1.00
                0.1007                   1
 d    1 1.00
                 1.848                   1
 d    1 1.00
                 0.649                   1
 d    1 1.00
                 0.228                   1
 f    1 1.00
                 1.419                   1
 f    1 1.00
                 0.485                   1
 g    1 1.00
                 1.011                   1

2 0
 s    9 1.00
                 33980  9.1634545701884e-05
                  5089  0.00070890901290249
                  1157   0.003718751398649
                 326.6   0.015467105736054
                 106.1   0.053298075488517
                 38.11    0.14806833520486
                 14.75     0.3077621740375
                 6.035    0.40212964454196
                  2.53    0.21856450306747
 s    9 1.00
                 33980  -5.5710360210471e-05
                  5089  -0.00044275075746216
                  1157  -0.0023017175139589
                 326.6  -0.0097463809126108
                 106.1  -0.033754614039102
                 38.11   -0.10016136340998
                 14.75   -0.22628082255382
                 6.035   -0.41487505248738
                  2.53   -0.34604636850945
 s    1 1.00
                0.7355                   1
 s    1 1.00
                0.2905                   1
 s    1 1.00
                0.1111                   1
 p    3 1.00
                 34.51   0.031687855209339
                 7.915     0.2128943072562
                 2.368    0.83958675201643
 p    1 1.00
                0.8132                   1
 p    1 1.00
                 0.289                   1
 p    1 1.00
                0.1007                   1
 d    1 1.00
                 1.848                   1
 d    1 1.00
                 0.649                   1
 d    1 1.00
                 0.228                   1
 f    1 1.00
                 1.419                   1
 f    1 1.00
                 0.485                   1
 g    1 1.00
                 1.011                   1

3 0
 s    9 1.00
                 33980  9.1634545701884e-05
                  5089  0.00070890901290249
                  1157   0.003718751398649
                 326.6   0.015467105736054
                 106.1   0.053298075488517
                 38.11    0.14806833520486
                 14.75     0.3077621740375
                 6.035    0.40212964454196
                  2.53    0.21856450306747
 s    9 1.00
                 33980  -5.5710360210471e-05
                  5089  -0.00044275075746216
                  1157  -0.0023017175139589
                 326.6  -0.0097463809126108
                 106.1  -0.033754614039102
                 38.11   -0.10016136340998
                 14.75   -0.22628082255382
                 6.035   -0.41487505248738
                  2.53   -0.34604636850945
 s    1 1.00
                0.7355                   1
 s    1 1.00
                0.2905                   1
 s    1 1.00
                0.1111                   1
 p    3 1.00
                 34.51   0.031687855209339
                 7.915     0.2128943072562
                 2.368    0.83958675201643
 p    1 1.00
                0.8132                   1
 p    1 1.00
                 0.289                   1
 p    1 1.00
                0.1007                   1
 d    1 1.00
                 1.848                   1
 d    1 1.00
                 0.649                   1
 d    1 1.00
                 0.228                   1
 f    1 1.00
                 1.419                   1
 f    1 1.00
                 0.485                   1
 g    1 1.00
                 1.011                   1

4 0
 s    9 1.00
                 61420  9.0738926792129e-05
                  9199  0.00070373078778785
                  2091  0.0036940825307373
                 590.9   0.015342944310251
                 192.3    0.05285340843582
                 69.32    0.14711905484927
                 26.97    0.30776425905235
                  11.1    0.40177986931198
                 4.682    0.21876147039285
 s    9 1.00
                 61420  -5.6106385876036e-05
                  9199  -0.00044604576771449
                  2091  -0.0023256096945617
                 590.9  -0.0098410600826567
                 192.3  -0.034101461335455
                 69.32   -0.10172368291255
                 26.97    -0.2328190588312
                  11.1   -0.42666101139432
                 4.682   -0.32354027947345
 s    1 1.00
                 1.428                   1
 s    1 1.00
                0.5547                   1
 s    1 1.00
                0.2067                   1
 p    3 1.00
                 63.42   0.031327502519451
                 14.66    0.21665424847957
                 4.459    0.83524284223889
 p    1 1.00
                 1.531                   1
 p    1 1.00
                0.5302                   1
 p    1 1.00
                 0.175                   1
 d    1 1.00
                 3.775                   1
 d    1 1.00
                   1.3                   1
 d    1 1.00
                 0.444                   1
 f    1 1.00
                 2.666                   1
 f    1 1.00
                 0.859                   1
 g    1 1.00
                 1.846                   1

5 0
 s    3 1.00
                 82.64   0.022950757792906
                 12.41    0.17554011805411
                 2.824    0.86470355096212
 s    1 1.00
                0.7977                   1
 s    1 1.00
                0.2581                   1
 s    1 1.00
               0.08989                   1
 p    1 1.00
                 2.292                   1
 p    1 1.00
                 0.838                   1
 p    1 1.00
                 0.292                   1
 d    1 1.00
                 2.062                   1
 d    1 1.00
                 0.662                   1
 f    1 1.00
                 1.397                   1

6 0
 s    3 1.00
                 82.64   0.022950757792906
                 12.41    0.17554011805411
                 2.824    0.86470355096212
 s    1 1.00
                0.7977                   1
 s    1 1.00
                0.2581                   1
 s    1 1.00
               0.08989                   1
 p    1 1.00
                 2.292                   1
 p    1 1.00
                 0.838                   1
 p    1 1.00
                 0.292                   1
 d    1 1.00
                 2.062                   1
 d    1 1.00
                 0.662                   1
 f    1 1.00
                 1.397                   1

7 0
 s    3 1.00
                 82.64   0.022950757792906
                 12.41    0.17554011805411
                 2.824    0.86470355096212
 s    1 1.00
                0.7977                   1
 s    1 1.00
                0.2581                   1
 s    1 1.00
               0.08989                   1
 p    1 1.00
                 2.292                   1
 p    1 1.00
                 0.838                   1
 p    1 1.00
                 0.292                   1
 d    1 1.00
                 2.062                   1
 d    1 1.00
                 0.662                   1
 f    1 1.00
                 1.397                   1

8 0
 s    3 1.00
                 82.64   0.022950757792906
                 12.41    0.17554011805411
                 2.824    0.86470355096212
 s    1 1.00
                0.7977                   1
 s    1 1.00
                0.2581                   1
 s    1 1.00
               0.08989                   1
 p    1 1.00
                 2.292                   1
 p    1 1.00
                 0.838                   1
 p    1 1.00
                 0.292                   1
 d    1 1.00
                 2.062                   1
 d    1 1.00
                 0.662                   1
 f    1 1.00
                 1.397                   1

[5d]
[7f]
[9g]

[MO]
 Sym= A
 Ene=   -0.6671579615
 Spin= Alpha
 Occup=    2.00000
   1    -0.00017316747458164
   2    -0.012304247401187
   3    -0.012702585396741
   4    -0.018274861624529
   5    -0.0093925470092032
   6    -0.023165126941806
   7     0.074969251454724
   8    1.6782909167984e-18
   9    -0.045937071710433
  10      0.14868183695882
  11    1.4413518428049e-15
  12    -0.062941065843033
  13      0.15625275989244
  14    -1.2310466586566e-14
  15    -0.023121397897908
  16     0.024124445417725
  17    -1.6915864023736e-15
  18    0.00049845621745061
  19    -1.8476796325681e-16
  20    3.2437752724375e-17
  21    -0.0016096460142184
  22    0.00015569646823273
  23    -0.00087697880906621
  24    8.9200584971079e-16
  25    4.4375407994252e-16
  26    -0.0027196663171399
  27    0.0010124146280822
  28    -0.0026442749703006
  29    2.9075565975104e-15
  30    -3.2610023029272e-15
  31    -0.0063209982469478
  32    0.0083704172180945
  33    -4.0691041258672e-17
  34    0.00014630000167964
  35    -0.0012369125535028
  36    -8.7536069223746e-17
  37    -4.5135015961161e-17
  38    -0.0022579477172389
  39    0.00081336923414542
  40    3.4853295843978e-15
  41    0.00070231373644881
  42    -0.0024205795372095
  43    -4.8633348546955e-16
  44    -1.299961259383e-15
  45    -0.0048395318143114
  46    -0.0020763971531514
  47    0.0001323318669759
  48    -1.7791731470547e-16
  49    -8.8545021639485e-17
  50    -6.0927842788807e-05
  51    0.00044927476576215
  52    2.7096347754838e-16
  53    8.6235770424246e-16
  54    0.0024075103098464
  55    0.00055522905125684
  56    0.0003668977445874
  57    -0.024702205384108
  58    -0.020969703917856
  59    -0.032915165723362
  60    -0.0042029673336447
  61    -0.004416432840813
  62     -0.06803509716244
  63    1.0285982447574e-16
  64    -0.0085583309340966
  65     -0.13224815287024
  66    3.0514782134205e-16
  67    -0.0061547575088994
  68     -0.15288465895483
  69    -7.4884744315175e-16
  70    0.0081607352612257
  71    -0.041921796262799
  72    -1.0247642091023e-15
  73    0.00034293938949633
  74    3.4811338549233e-16
  75     7.55972086128e-17
  76    -0.0025679748185645
  77    0.00047597203733137
  78    -0.00095319977014453
  79    -2.5512198973369e-15
  80    -4.6738174536356e-16
  81    -0.0090093921686537
  82    0.00034379766677719
  83    -0.0017718611514479
  84    -9.0117539652637e-15
  85    -8.2530791163283e-15
  86    -0.010540457129874
  87    -8.2198210838849e-05
  88    3.2390742330032e-18
  89    0.00012767382899781
  90    0.0010812640713509
  91    2.6968432157971e-16
  92    4.4440852948587e-17
  93    0.00095577025421165
  94    -0.00059273114351876
  95    -3.9553254658197e-16
  96    0.00092890932956818
  97    0.0046481052741503
  98    -3.150556345239e-15
  99    -2.7252400954563e-15
 100    0.0043379455955761
 101    0.00061152277393686
 102    0.00013359973964164
 103    7.0849088395105e-16
 104    3.8527498377208e-16
 105    0.00038662198065573
 106    0.0002873758166105
 107    -2.54459024055e-17
 108    6.622376627756e-17
 109    0.0010210305124447
 110    -0.00027689300601794
 111    -0.00015731223645331
 112     0.014175552387485
 113     0.011370567840547
 114     0.024253078681008
 115    0.0069513093922444
 116     0.061090712186286
 117    -0.039478991621737
 118    -8.4951676572672e-17
 119        0.119722040576
 120    -0.076619723091602
 121    -2.7640153156523e-16
 122      0.12516887320038
 123     -0.08543436103971
 124    1.0859822429628e-14
 125     0.033837122735603
 126    -0.021705731046649
 127    3.4506864860228e-15
 128    -0.00025524501854659
 129    2.9387355076323e-16
 130    6.8031844548447e-17
 131    -0.00023490142612562
 132    -0.0033057258707447
 133    -0.00016597442676428
 134    -1.9735656676503e-15
 135    -3.896129748665e-17
 136    -0.0033616056035091
 137    -0.0068756749753716
 138    0.00027121347766987
 139    -6.7878930157985e-15
 140    5.2776649960822e-16
 141    0.0029925068085236
 142    -0.0094769117229979
 143    -6.1771427402231e-17
 144    -0.00090985178378093
 145    0.00055502442589535
 146    -2.299064297396e-17
 147    4.1112490335591e-17
 148    0.00079357719772918
 149    -0.00031280007355569
 150    -2.1366689896431e-15
 151    -0.001308087894092
 152    0.00052676520006336
 153    3.2877263146027e-16
 154    1.9687838817391e-15
 155    0.0024628046924904
 156    0.0012348749692399
 157    -0.00012639013862345
 158    3.0527459704362e-16
 159    -1.2476049742097e-16
 160    0.00035898263567228
 161    -9.7963272001548e-05
 162    -1.4730485065787e-16
 163    -5.9929956368599e-16
 164    -0.00099140072587673
 165    -0.00064303600205955
 166    0.00041875673613265
 167     0.022599499786943
 168     0.019061508950193
 169     0.037050264926578
 170     0.026491795114334
 171    -0.051715438634009
 172     0.051132408864304
 173    5.7431597983594e-17
 174    -0.094519298237697
 175     0.093418780850182
 176    -2.9892130111861e-16
 177      -0.1192415661042
 178      0.11635074711772
 179    4.201060475194e-15
 180     -0.05874915113019
 181      0.05839207951313
 182    3.2832433624599e-15
 183    0.00024488574568739
 184    -4.6528887642601e-17
 185    2.6147162830698e-17
 186    -0.0015653951698326
 187    0.00045808976363354
 188    0.0013986268858695
 189    1.996388661987e-16
 190    -7.3237410063717e-17
 191    -0.0085536251983663
 192    0.0029728686704071
 193    0.0014854566446482
 194    3.7129636686096e-15
 195    2.4730358560853e-15
 196    -0.010318451832267
 197    0.0018141629423707
 198    6.8460103453523e-17
 199    9.4962681226661e-05
 200    3.752361672181e-05
 201    -1.3991353055264e-17
 202    -1.1669204668551e-16
 203    -0.0010186465055491
 204    -7.195581641016e-05
 205    -8.5159356763789e-16
 206    0.00025649875445919
 207    0.00019485034147089
 208    4.7040092600324e-16
 209    9.5238504006696e-16
 210    -0.0031165677655158
 211    -0.00060239735987039
 212    -6.0006812002948e-05
 213    -9.1730788609105e-17
 214    -6.2516081627214e-17
 215    0.00018227006789588
 216    -1.9670496738857e-05
 217    -1.5740398318834e-17
 218    1.3091721543105e-16
 219    -0.00045841370557768
 220    -0.00031100720261231
 221    -0.028002720339055
 222    -0.076134280208897
 223     -0.09050963924689
 224    -0.026367633832456
 225    0.0018865431527449
 226    -0.00040653189440101
 227    -2.6035113503255e-16
 228    0.0098931931223311
 229    -0.0021387817704649
 230    1.1012893232663e-15
 231     0.003874759150648
 232    0.00067805737835542
 233    1.0244917286348e-15
 234    0.00035618968130364
 235    -3.4760870444362e-17
 236    -1.2792665587636e-16
 237    -0.00044450785460522
 238    0.00038073919731347
 239    0.00074717275612067
 240    -8.9616968738254e-16
 241    1.0713071105366e-15
 242    -0.0016676595706034
 243    0.0010795391505787
 244    -1.4104871649848e-16
 245    -0.00016588710656539
 246    0.00013387638262648
 247    4.9909465117164e-17
 248    -1.3784624359999e-16
 249    6.3620723252573e-06
 250    5.2087508583429e-05
 251    -0.020390472448478
 252    -0.054420369567736
 253    -0.069810833453785
 254    -0.0079549349977878
 255    -0.001706126011612
 256    5.4030584179937e-05
 257    6.5756110390569e-17
 258    -0.0074004981708194
 259    0.00029880405350134
 260    -8.0341950377624e-16
 261    -0.007420543312072
 262    -0.003407577960887
 263    -2.818201602502e-15
 264    0.00027529040350814
 265    5.226622108881e-17
 266    -8.7836295520407e-17
 267    -0.00051255950818672
 268    0.00028344325764515
 269    0.00053917037492368
 270    -1.4380136434912e-15
 271    8.6924898685956e-16
 272    -0.0018732413583568
 273    0.00043610229371634
 274    2.213994095024e-16
 275    8.6087587407567e-05
 276    -9.792854184928e-05
 277    -2.2547752903466e-16
 278    2.0925045181639e-16
 279    -0.00014610485173243
 280    0.00016808433966784
 281    -0.012951150754705
 282    -0.034037409262316
 283    -0.042571197792714
 284    -0.0087382392425173
 285    0.0010237936176706
 286    0.00063260449690779
 287    8.0473736434688e-17
 288    0.0039433580963975
 289    0.0038789359334668
 290    -5.8528222492391e-16
 291    0.0062497774894516
 292    0.0015300827893047
 293    -3.6263642575883e-15
 294    0.00015429730367462
 295    -9.2007126338632e-17
 296    -7.574432844221e-17
 297    0.00023039333178976
 298    -0.00036713374752273
 299    0.00092593138652179
 300    4.0410186598724e-16
 301    1.6879212741186e-15
 302    0.00028421841305803
 303    -0.0012995671378602
 304    1.4924275716331e-16
 305    -1.9747530271004e-05
 306    -0.00016810645121168
 307    2.026139467183e-16
 308    -5.5062860280554e-17
 309    -2.1693613129228e-05
 310    -5.9356328634854e-05
 311      0.03831686453047
 312      0.10369280417411
 313      0.13911577928785
 314     0.032532829775995
 315    -0.0020148254572836
 316    0.0015331873721851
 317    -5.3314778880515e-17
 318    -0.010360874829849
 319    0.0072312862241938
 320    -6.0280812310356e-18
 321    -0.0085130522584071
 322    0.0052126770984466
 323    1.2924426594771e-15
 324    -0.00051483311100192
 325    -4.8193449282614e-17
 326    -7.4677363046763e-17
 327    0.00023322297820205
 328    -0.00084634973617819
 329    -0.0013557373020499
 330    1.9314538330277e-18
 331    2.6075702718916e-16
 332    0.00077487737070468
 333    -0.0020711514447136
 334    2.2064300431949e-17
 335    0.00021557800697201
 336    -0.000181383098523
 337    1.3562059006537e-17
 338    -2.4706050426821e-17
 339    0.00015751405290232
 340    0.00022833523442955
 Sym= A
 Ene=   -0.6030392249
 Spin= Alpha
 Occup=    2.00000
   1    0.00073309742075407
   2    -0.0016832112973603
   3    0.0070319727783677
   4    -0.046742444434452
   5    -0.087163533134742
   6    -0.069971660506981
   7    -0.026959424884688
   8    3.2130507919097e-16
   9     -0.13596252134212
  10    -0.053253413008131
  11    1.2341335116161e-15
  12     -0.12379676654874
  13    -0.033344156490587
  14     2.94028053005e-15
  15    0.0011807151620125
  16    -0.0051309975956896
  17    -2.3458077158253e-15
  18    -0.0015536491912379
  19    2.5412780308839e-16
  20    1.1023245440962e-16
  21    0.0035015027454959
  22    0.0070864374639472
  23    0.00085157576089945
  24    -1.7575909189351e-15
  25    -5.8008419726076e-16
  26    0.0078909448031602
  27     0.017447282942681
  28    0.0065190337946835
  29    -2.3865629812639e-16
  30    -8.6907653568646e-16
  31    -0.0029478970025555
  32     0.011881041175937
  33    -8.9490491360732e-17
  34    0.0016074670675957
  35    0.00075319010342248
  36    1.5442471195226e-16
  37    1.329253865083e-16
  38    -0.00086830647522754
  39    -0.0011240242343147
  40    -5.5112999378049e-16
  41    0.0020868363994873
  42    0.00052504706273098
  43    2.7180747962112e-16
  44    9.8386971032139e-16
  45    -0.0013696813885974
  46    0.0011816309174851
  47    0.00034207227093264
  48    3.6962845120241e-16
  49    1.2201971901021e-16
  50    -0.00061860036589302
  51    -0.00084624342501312
  52    -7.0685720304208e-17
  53    -2.7234244929188e-16
  54    -0.00047411384513263
  55    0.0014818660913336
  56    -0.0003039554982665
  57     0.013640464771124
  58    0.0088062257257555
  59     0.017147703942103
  60     0.046857498299671
  61     0.068710303498566
  62     0.021086924994559
  63    1.9578751654839e-16
  64      0.13333315919349
  65     0.041777528113086
  66    5.3219694820901e-16
  67      0.15417235266304
  68     0.052721872545186
  69    2.7892069865359e-15
  70     0.038846033652504
  71    0.0097630958098113
  72    6.6364335630424e-15
  73    2.1277406999867e-05
  74    -2.3597527264807e-16
  75    -8.9853301148859e-17
  76    0.0037328176011601
  77     0.004037028000677
  78    -0.0010568674954048
  79    1.4821992051852e-15
  80    2.5790110604729e-16
  81      0.01366721091023
  82     0.012102804953025
  83    -0.0038248778206727
  84    2.4797694250288e-15
  85    6.7136164614376e-16
  86     0.016908962846128
  87     0.016448623682802
  88    6.0459044063717e-17
  89    -0.0010275611311248
  90    -0.0003999011951986
  91    4.5379955779752e-17
  92    9.5435183841337e-17
  93    0.0010401949719947
  94    0.00011650255800656
  95    -3.9403617170586e-16
  96    -0.0027885241854091
  97    -0.0013183743469207
  98    2.8711495534824e-17
  99    1.2980140511518e-15
 100    0.0033906796697179
 101     0.001278972780714
 102    0.00029166950453869
 103    -3.3347134300778e-16
 104    5.8870478184798e-17
 105    -0.00046039439190576
 106    -0.00049211983862514
 107    -2.9982143483732e-17
 108    -5.0352161533245e-17
 109    -7.8859881002176e-05
 110    0.0010678839589571
 111    3.8924763694356e-05
 112     0.022681184050043
 113     0.020804746270829
 114    -0.00052665975572701
 115    -0.027457920704524
 116    -0.052402125673027
 117     -0.06350583410307
 118    2.0774280458371e-16
 119     -0.10228091789468
 120     -0.12238628337538
 121    3.1933494442284e-16
 122    -0.099945993751615
 123     -0.13677308574275
 124    -1.6675732388766e-15
 125     -0.02348551046635
 126    -0.033538566418869
 127    -3.987688012869e-15
 128    -0.00013933196625156
 129    -1.7114124512805e-16
 130    7.0968517377642e-17
 131    0.0045747648346006
 132    0.0018543526742949
 133    0.00047549298359519
 134    8.0872410221972e-16
 135    -1.844989088816e-16
 136     0.012587208444447
 137      0.00534220049017
 138    0.0037479807234054
 139    3.2238934890128e-15
 140    1.8170935476187e-15
 141    0.0087642930420893
 142    0.0024290812468551
 143    -3.9039249664753e-17
 144    0.00072733930149227
 145    0.00074383166768169
 146    1.2810597688647e-16
 147    -3.6547250502956e-17
 148    2.7649214144682e-06
 149    -0.00045755100992145
 150    5.1781053923371e-16
 151    0.0022024436727158
 152    0.0029010645725754
 153    -1.2102710735583e-15
 154    -7.9170466882972e-16
 155    0.00021553940176582
 156    -0.00084736399098547
 157    0.00028220325423093
 158    -3.1418940786267e-16
 159    -6.8519198722505e-17
 160    -0.00022315235069232
 161    -0.0004266352039802
 162    5.893048571937e-17
 163    5.5846669634889e-17
 164    -0.00077780531036594
 165     0.001125738320092
 166    -0.001144768951789
 167    -0.055552739968291
 168    -0.046628692692757
 169     -0.10862495619823
 170    -0.071843051691205
 171      0.08803790096229
 172       0.0473384000251
 173    6.3500246877784e-16
 174      0.16011590072635
 175     0.086257718934166
 176    1.3099475293307e-15
 177      0.20214007125597
 178      0.10766985392624
 179    -2.5478746892267e-16
 180      0.10957960002579
 181     0.060920147633835
 182    9.0155356090305e-16
 183    -0.0011642851796782
 184    2.0015454827487e-16
 185    6.447595600424e-17
 186    0.0012701907986236
 187    0.0019760458840035
 188    -0.005414657075565
 189    -3.778179856572e-16
 190    -1.6764384423346e-16
 191    0.0058444223583052
 192    0.0088426725483812
 193    -0.0099419204736473
 194    -1.2587275699957e-15
 195    -5.009692951684e-16
 196      0.01097722178421
 197      0.01565243862062
 198    -5.6017200930578e-17
 199    -0.00031829255221439
 200    -0.0001753837926463
 201    6.785860793147e-17
 202    7.0216746320372e-17
 203    0.00010430740457968
 204    0.0011120325479443
 205    5.1864129601977e-16
 206    -0.0021200330914641
 207    -0.0010261786579104
 208    -4.4954570426543e-16
 209    -5.5376368414442e-16
 210    0.00045708253539437
 211     0.004232909875413
 212    0.00037908750896401
 213    1.761314583607e-16
 214    8.4131595758851e-17
 215    -0.00031210951448335
 216    -0.00045654944373333
 217    -3.6073566388825e-17
 218    -1.6689121630123e-16
 219    -0.00028050388757105
 220    0.00068175074018579
 221    -0.025355382370447
 222    -0.065711959702289
 223    -0.082979733916278
 224    -0.037042563143075
 225    0.0010943842716683
 226    -0.0013584730829751
 227    -6.2695074849769e-17
 228    0.0039804966283223
 229    -0.003754289809983
 230    3.2897923036167e-16
 231    -0.0018348184243958
 232    -0.0055862560097071
 233    1.0608393269197e-16
 234    0.00030729480202656
 235    5.9159318177427e-17
 236    -2.8296202350478e-17
 237    -0.00011390885802779
 238    0.00039281905632509
 239    -0.00023069342751869
 240    -2.4815430367626e-16
 241    2.0853392329187e-16
 242    0.00088661599709332
 243    0.0018937361987957
 244    -5.183751691172e-17
 245    -8.6146241236736e-05
 246    0.00014729802426787
 247    -2.8724384078669e-17
 248    -5.8929209845154e-17
 249    -0.0001934580872948
 250    -0.00027173039554712
 251     -0.02240746485737
 252    -0.059501309136524
 253    -0.087197920155781
 254    -0.028755940211077
 255    -0.00063579734047732
 256    0.0012695954958717
 257    -3.6551904549854e-16
 258    -0.0049846427715026
 259    0.0047270544307092
 260    1.5520366583134e-15
 261    -0.0027574465088483
 262    0.0076241125402897
 263    -9.7919208094983e-16
 264    0.00025156960585526
 265    6.6618831266104e-17
 266    3.4447947379741e-17
 267    3.9331697192309e-05
 268    0.00049781502482441
 269    0.0010097101453066
 270    5.0024714077496e-16
 271    -5.0214708864167e-16
 272    -4.1703050412519e-05
 273    0.0015968397778261
 274    -1.128474742066e-16
 275    0.00018909611654825
 276    -0.00014131276358273
 277    3.4341319407783e-17
 278    -1.8114641587977e-16
 279    0.00013265131144623
 280    0.00015382580216644
 281    -0.034841147592371
 282    -0.091130798171056
 283     -0.12216134773605
 284    -0.038762367978213
 285    -0.00033724010163042
 286    0.0021140548738243
 287    2.0771081268917e-17
 288    -0.0004697009001473
 289    0.0087105065155141
 290    -1.5435641888595e-16
 291      -0.0029878822632
 292    0.0053058394765178
 293    -5.8091693231446e-16
 294    0.00042424912183702
 295    1.9082641547464e-18
 296    -1.3730859863343e-17
 297    0.00067686507805708
 298    2.7564660331299e-05
 299    0.00078688490503827
 300     5.84539161714e-17
 301    1.8529580622268e-16
 302     0.001871262169788
 303    0.0002247231717036
 304    -5.7257392353259e-17
 305    -5.1017170668063e-05
 306    -0.00031643483321776
 307    -3.2420348067725e-17
 308    -1.4284828957967e-17
 309    -4.8053818872224e-05
 310    -0.00032173590845544
 311    -0.00032375756275494
 312    -0.001200311730347
 313    0.0041626202411845
 314    -0.00085142000474348
 315    -0.00074116851876937
 316    -0.00092270450090662
 317    1.8919431294254e-16
 318    -0.0022332786657606
 319    -0.0017682162076502
 320    -6.1488949604684e-16
 321    -0.0042588147789738
 322    -0.0014749991704628
 323    2.5843703935216e-16
 324    2.5187936377187e-06
 325    1.7783199319461e-17
 326    -4.88798156366e-17
 327    0.00037782645730334
 328    0.00010383971123934
 329    -0.00013399831608285
 330    2.6864768629612e-16
 331    -5.4902120132193e-17
 332    0.00092299844332424
 333    -0.00058157405166934
 334    7.2530715131058e-17
 335    4.5316080882593e-06
 336    -2.5819117196494e-05
 337    -9.0792758872584e-17
 338    5.3961202087158e-17
 339    -1.5075338625125e-05
 340    9.731744869884e-05
 Sym= A
 Ene=   -0.5625954958
 Spin= Alpha
 Occup=    2.00000
   1    -1.6336434990988e-06
   2    -0.036053400679894
   3    -0.027307470326674
   4    -0.057825959054977
   5    -0.014965732159202
   6    -0.0039529049307809
   7    -0.040783157071212
   8    -1.916574080568e-16
   9    -0.0079078883427843
  10    -0.079932002478738
  11    1.3333121599304e-15
  12    0.0049011423829655
  13    -0.085185472384613
  14    1.063899585294e-15
  15    0.0097154771651997
  16    -0.018023582337329
  17    -4.9870156796999e-16
  18    -3.6115525389322e-05
  19    7.0411788322696e-17
  20    -9.3596299970003e-17
  21    -0.00018417091794801
  22    0.00030802814726027
  23    0.00046637263292632
  24    -2.3508066665561e-16
  25    5.8791048256721e-17
  26    -0.0024841031034207
  27    -0.0011436154892342
  28    0.00076316291285407
  29    2.3634406575117e-15
  30    7.3374240292987e-16
  31    0.00098880643021564
  32    0.0034431234897452
  33    -1.705332512946e-16
  34    0.0001738404460013
  35    0.00049811049184872
  36    2.2262583288055e-16
  37    1.2496076664354e-16