[Molden Format]
made by pyscf v[2.14.0]
[Atoms] (AU)
C   1   6     0.00000000000000     0.00000000000000     2.63994739660000
C   2   6     0.00000000000000     0.00000000000000    -2.63994739660000
C   3   6     0.00000000000000     2.28619066600000     1.31997369830000
C   4   6     0.00000000000000    -2.28619066600000     1.31997369830000
C   5   6     0.00000000000000     2.28619066600000    -1.31997369830000
C   6   6     0.00000000000000    -2.28619066600000    -1.31997369830000
H   7   1     0.00000000000000     0.00000000000000     4.68841051610000
H   8   1     0.00000000000000     0.00000000000000    -4.68841051610000
H   9   1     0.00000000000000     4.06026555220000     2.34420525810000
H   10   1     0.00000000000000    -4.06026555220000     2.34420525810000
H   11   1     0.00000000000000     4.06026555220000    -2.34420525810000
H   12   1     0.00000000000000    -4.06026555220000    -2.34420525810000
[GTO]
1 0
 s    9 1.00
                 33980  9.1634545701884e-05
                  5089  0.00070890901290249
                  1157   0.003718751398649
                 326.6   0.015467105736054
                 106.1   0.053298075488517
                 38.11    0.14806833520486
                 14.75     0.3077621740375
                 6.035    0.40212964454196
                  2.53    0.21856450306747
 s    9 1.00
                 33980  -5.5710360210471e-05
                  5089  -0.00044275075746216
                  1157  -0.0023017175139589
                 326.6  -0.0097463809126108
                 106.1  -0.033754614039102
                 38.11   -0.10016136340998
                 14.75   -0.22628082255382
                 6.035   -0.41487505248738
                  2.53   -0.34604636850945
 s    1 1.00
                0.7355                   1
 s    1 1.00
                0.2905                   1
 s    1 1.00
                0.1111                   1
 p    3 1.00
                 34.51   0.031687855209339
                 7.915     0.2128943072562
                 2.368    0.83958675201643
 p    1 1.00
                0.8132                   1
 p    1 1.00
                 0.289                   1
 p    1 1.00
                0.1007                   1
 d    1 1.00
                 1.848                   1
 d    1 1.00
                 0.649                   1
 d    1 1.00
                 0.228                   1
 f    1 1.00
                 1.419                   1
 f    1 1.00
                 0.485                   1
 g    1 1.00
                 1.011                   1

2 0
 s    9 1.00
                 33980  9.1634545701884e-05
                  5089  0.00070890901290249
                  1157   0.003718751398649
                 326.6   0.015467105736054
                 106.1   0.053298075488517
                 38.11    0.14806833520486
                 14.75     0.3077621740375
                 6.035    0.40212964454196
                  2.53    0.21856450306747
 s    9 1.00
                 33980  -5.5710360210471e-05
                  5089  -0.00044275075746216
                  1157  -0.0023017175139589
                 326.6  -0.0097463809126108
                 106.1  -0.033754614039102
                 38.11   -0.10016136340998
                 14.75   -0.22628082255382
                 6.035   -0.41487505248738
                  2.53   -0.34604636850945
 s    1 1.00
                0.7355                   1
 s    1 1.00
                0.2905                   1
 s    1 1.00
                0.1111                   1
 p    3 1.00
                 34.51   0.031687855209339
                 7.915     0.2128943072562
                 2.368    0.83958675201643
 p    1 1.00
                0.8132                   1
 p    1 1.00
                 0.289                   1
 p    1 1.00
                0.1007                   1
 d    1 1.00
                 1.848                   1
 d    1 1.00
                 0.649                   1
 d    1 1.00
                 0.228                   1
 f    1 1.00
                 1.419                   1
 f    1 1.00
                 0.485                   1
 g    1 1.00
                 1.011                   1

3 0
 s    9 1.00
                 33980  9.1634545701884e-05
                  5089  0.00070890901290249
                  1157   0.003718751398649
                 326.6   0.015467105736054
                 106.1   0.053298075488517
                 38.11    0.14806833520486
                 14.75     0.3077621740375
                 6.035    0.40212964454196
                  2.53    0.21856450306747
 s    9 1.00
                 33980  -5.5710360210471e-05
                  5089  -0.00044275075746216
                  1157  -0.0023017175139589
                 326.6  -0.0097463809126108
                 106.1  -0.033754614039102
                 38.11   -0.10016136340998
                 14.75   -0.22628082255382
                 6.035   -0.41487505248738
                  2.53   -0.34604636850945
 s    1 1.00
                0.7355                   1
 s    1 1.00
                0.2905                   1
 s    1 1.00
                0.1111                   1
 p    3 1.00
                 34.51   0.031687855209339
                 7.915     0.2128943072562
                 2.368    0.83958675201643
 p    1 1.00
                0.8132                   1
 p    1 1.00
                 0.289                   1
 p    1 1.00
                0.1007                   1
 d    1 1.00
                 1.848                   1
 d    1 1.00
                 0.649                   1
 d    1 1.00
                 0.228                   1
 f    1 1.00
                 1.419                   1
 f    1 1.00
                 0.485                   1
 g    1 1.00
                 1.011                   1

4 0
 s    9 1.00
                 33980  9.1634545701884e-05
                  5089  0.00070890901290249
                  1157   0.003718751398649
                 326.6   0.015467105736054
                 106.1   0.053298075488517
                 38.11    0.14806833520486
                 14.75     0.3077621740375
                 6.035    0.40212964454196
                  2.53    0.21856450306747
 s    9 1.00
                 33980  -5.5710360210471e-05
                  5089  -0.00044275075746216
                  1157  -0.0023017175139589
                 326.6  -0.0097463809126108
                 106.1  -0.033754614039102
                 38.11   -0.10016136340998
                 14.75   -0.22628082255382
                 6.035   -0.41487505248738
                  2.53   -0.34604636850945
 s    1 1.00
                0.7355                   1
 s    1 1.00
                0.2905                   1
 s    1 1.00
                0.1111                   1
 p    3 1.00
                 34.51   0.031687855209339
                 7.915     0.2128943072562
                 2.368    0.83958675201643
 p    1 1.00
                0.8132                   1
 p    1 1.00
                 0.289                   1
 p    1 1.00
                0.1007                   1
 d    1 1.00
                 1.848                   1
 d    1 1.00
                 0.649                   1
 d    1 1.00
                 0.228                   1
 f    1 1.00
                 1.419                   1
 f    1 1.00
                 0.485                   1
 g    1 1.00
                 1.011                   1

5 0
 s    9 1.00
                 33980  9.1634545701884e-05
                  5089  0.00070890901290249
                  1157   0.003718751398649
                 326.6   0.015467105736054
                 106.1   0.053298075488517
                 38.11    0.14806833520486
                 14.75     0.3077621740375
                 6.035    0.40212964454196
                  2.53    0.21856450306747
 s    9 1.00
                 33980  -5.5710360210471e-05
                  5089  -0.00044275075746216
                  1157  -0.0023017175139589
                 326.6  -0.0097463809126108
                 106.1  -0.033754614039102
                 38.11   -0.10016136340998
                 14.75   -0.22628082255382
                 6.035   -0.41487505248738
                  2.53   -0.34604636850945
 s    1 1.00
                0.7355                   1
 s    1 1.00
                0.2905                   1
 s    1 1.00
                0.1111                   1
 p    3 1.00
                 34.51   0.031687855209339
                 7.915     0.2128943072562
                 2.368    0.83958675201643
 p    1 1.00
                0.8132                   1
 p    1 1.00
                 0.289                   1
 p    1 1.00
                0.1007                   1
 d    1 1.00
                 1.848                   1
 d    1 1.00
                 0.649                   1
 d    1 1.00
                 0.228                   1
 f    1 1.00
                 1.419                   1
 f    1 1.00
                 0.485                   1
 g    1 1.00
                 1.011                   1

6 0
 s    9 1.00
                 33980  9.1634545701884e-05
                  5089  0.00070890901290249
                  1157   0.003718751398649
                 326.6   0.015467105736054
                 106.1   0.053298075488517
                 38.11    0.14806833520486
                 14.75     0.3077621740375
                 6.035    0.40212964454196
                  2.53    0.21856450306747
 s    9 1.00
                 33980  -5.5710360210471e-05
                  5089  -0.00044275075746216
                  1157  -0.0023017175139589
                 326.6  -0.0097463809126108
                 106.1  -0.033754614039102
                 38.11   -0.10016136340998
                 14.75   -0.22628082255382
                 6.035   -0.41487505248738
                  2.53   -0.34604636850945
 s    1 1.00
                0.7355                   1
 s    1 1.00
                0.2905                   1
 s    1 1.00
                0.1111                   1
 p    3 1.00
                 34.51   0.031687855209339
                 7.915     0.2128943072562
                 2.368    0.83958675201643
 p    1 1.00
                0.8132                   1
 p    1 1.00
                 0.289                   1
 p    1 1.00
                0.1007                   1
 d    1 1.00
                 1.848                   1
 d    1 1.00
                 0.649                   1
 d    1 1.00
                 0.228                   1
 f    1 1.00
                 1.419                   1
 f    1 1.00
                 0.485                   1
 g    1 1.00
                 1.011                   1

7 0
 s    3 1.00
                 82.64   0.022950757792906
                 12.41    0.17554011805411
                 2.824    0.86470355096212
 s    1 1.00
                0.7977                   1
 s    1 1.00
                0.2581                   1
 s    1 1.00
               0.08989                   1
 p    1 1.00
                 2.292                   1
 p    1 1.00
                 0.838                   1
 p    1 1.00
                 0.292                   1
 d    1 1.00
                 2.062                   1
 d    1 1.00
                 0.662                   1
 f    1 1.00
                 1.397                   1

8 0
 s    3 1.00
                 82.64   0.022950757792906
                 12.41    0.17554011805411
                 2.824    0.86470355096212
 s    1 1.00
                0.7977                   1
 s    1 1.00
                0.2581                   1
 s    1 1.00
               0.08989                   1
 p    1 1.00
                 2.292                   1
 p    1 1.00
                 0.838                   1
 p    1 1.00
                 0.292                   1
 d    1 1.00
                 2.062                   1
 d    1 1.00
                 0.662                   1
 f    1 1.00
                 1.397                   1

9 0
 s    3 1.00
                 82.64   0.022950757792906
                 12.41    0.17554011805411
                 2.824    0.86470355096212
 s    1 1.00
                0.7977                   1
 s    1 1.00
                0.2581                   1
 s    1 1.00
               0.08989                   1
 p    1 1.00
                 2.292                   1
 p    1 1.00
                 0.838                   1
 p    1 1.00
                 0.292                   1
 d    1 1.00
                 2.062                   1
 d    1 1.00
                 0.662                   1
 f    1 1.00
                 1.397                   1

10 0
 s    3 1.00
                 82.64   0.022950757792906
                 12.41    0.17554011805411
                 2.824    0.86470355096212
 s    1 1.00
                0.7977                   1
 s    1 1.00
                0.2581                   1
 s    1 1.00
               0.08989                   1
 p    1 1.00
                 2.292                   1
 p    1 1.00
                 0.838                   1
 p    1 1.00
                 0.292                   1
 d    1 1.00
                 2.062                   1
 d    1 1.00
                 0.662                   1
 f    1 1.00
                 1.397                   1

11 0
 s    3 1.00
                 82.64   0.022950757792906
                 12.41    0.17554011805411
                 2.824    0.86470355096212
 s    1 1.00
                0.7977                   1
 s    1 1.00
                0.2581                   1
 s    1 1.00
               0.08989                   1
 p    1 1.00
                 2.292                   1
 p    1 1.00
                 0.838                   1
 p    1 1.00
                 0.292                   1
 d    1 1.00
                 2.062                   1
 d    1 1.00
                 0.662                   1
 f    1 1.00
                 1.397                   1

12 0
 s    3 1.00
                 82.64   0.022950757792906
                 12.41    0.17554011805411
                 2.824    0.86470355096212
 s    1 1.00
                0.7977                   1
 s    1 1.00
                0.2581                   1
 s    1 1.00
               0.08989                   1
 p    1 1.00
                 2.292                   1
 p    1 1.00
                 0.838                   1
 p    1 1.00
                 0.292                   1
 d    1 1.00
                 2.062                   1
 d    1 1.00
                 0.662                   1
 f    1 1.00
                 1.397                   1

[5d]
[7f]
[9g]

[MO]
 Sym= A
 Ene=     -14.2982811
 Spin= Alpha
 Occup=    2.00000
   1    -1.01354092361e-15
   2    1.8969155436755e-16
   3    -9.2049379834407e-17
   4    1.2123996548298e-14
   5    7.6293798710252e-15
   6      0.22785879678547
   7    -1.9990835726432e-14
   8    -7.3489455466568e-16
   9       0.1778506823861
  10    -1.4630544695561e-14
  11    2.6195507849153e-17
  12     0.010164064397355
  13    -3.3456991508879e-15
  14    1.801822941769e-15
  15    0.0012450034932625
  16    -1.0949897257842e-15
  17    -1.3900955188755e-15
  18    3.876941257459e-17
  19    -0.034758798729848
  20    2.3982211853198e-15
  21    3.7640304579862e-16
  22    2.6983607636822e-16
  23    1.1073885543707e-15
  24    -0.055238618382139
  25    3.8407969399883e-15
  26    -1.0238451564722e-15
  27    -1.8461878089002e-15
  28    2.6470324838829e-16
  29    0.0038067481371751
  30    1.4334632289164e-15
  31    -1.6454638713019e-15
  32    5.6821588705613e-16
  33    8.8957075756848e-17
  34     0.011606526832601
  35    1.2730519788822e-16
  36    5.0140609144646e-17
  37    -8.5956096450596e-17
  38    -0.010425044667605
  39    6.0364063278937e-16
  40    1.9454307759273e-15
  41      0.01753156592312
  42    -4.7256598780587e-16
  43    1.0191064878725e-15
  44    1.1116575031616e-15
  45    -0.0056842868189127
  46    1.2519853489188e-15
  47    1.8406906230331e-16
  48    -0.0065937292873738
  49    -4.3500954782721e-16
  50    1.4307447339871e-16
  51    -1.5799688508229e-16
  52    0.0075788523271922
  53    -7.4841868461081e-16
  54     1.92743474866e-16
  55    9.2286116485528e-17
  56    -1.8540240415251e-15
  57    -1.6856390757986e-15
  58    9.2656004154355e-16
  59    -5.3501031047552e-15
  60    -1.9929638552669e-14
  61      0.22785879678539
  62    2.0999765749423e-14
  63    1.7449699942253e-15
  64      0.17785068238604
  65    1.6386790196929e-14
  66    1.5466601341869e-15
  67     0.010164064397351
  68    2.5687421245373e-15
  69    -1.4128918312231e-15
  70    0.0012450034932687
  71    3.768221389173e-16
  72    -9.5732574824236e-15
  73    3.4964765392056e-16
  74     0.034758798729838
  75    2.659943430341e-15
  76    5.4177351017764e-17
  77    -6.8830548238478e-16
  78    8.6922898229363e-17
  79     0.055238618382121
  80    4.1855838649854e-15
  81    6.5762322583822e-16
  82    2.1289278582704e-15
  83    -2.8269776625966e-15
  84    -0.0038067481371719
  85    1.7360182943349e-15
  86    -6.0945014897548e-16
  87    4.3435162573253e-15
  88    1.9973337493573e-16
  89     0.011606526832598
  90    3.2598165940549e-17
  91    -3.1169966914523e-17
  92    -2.3983430434213e-17
  93    -0.010425044667602
  94    -6.806714882736e-16
  95    3.6548308931513e-16
  96     0.017531565923119
  97    9.5649004799835e-16
  98    4.8270796104758e-16
  99    1.908593032797e-15
 100    -0.0056842868189097
 101    -1.1449718276193e-15
 102    -1.5538365677529e-16
 103    0.0065937292873715
 104    -3.0855967205978e-16
 105     4.45120736444e-17
 106    2.0449268939517e-16
 107    -0.0075788523271898
 108    -5.9835732811006e-16
 109    -3.4146552507107e-16
 110    -1.4958004595495e-16
 111    -1.7036483948623e-16
 112    6.1693557746247e-15
 113    1.6775574464927e-14
 114    -3.3389679460772e-15
 115    -1.5776840846284e-14
 116      0.22784158979473
 117    -6.436426109937e-15
 118    -6.2073994041982e-15
 119      0.17783748433943
 120    -4.2987888581964e-15
 121    -6.562470149923e-15
 122      0.01016641943632
 123    -4.9396134323268e-15
 124    -5.1729394476363e-15
 125    0.0012454199874881
 126    1.8555185688802e-15
 127    3.0607397643686e-15
 128    3.4045084224643e-16
 129    -0.017376454842088
 130    1.3243896790068e-15
 131    -4.3392151422065e-16
 132    -0.030099976431114
 133    3.7171021619725e-16
 134    -0.027615742057294
 135    2.5039663609899e-15
 136    -1.5229110247965e-15
 137    -0.047834546365081
 138    9.8403823706129e-16
 139    0.0019024930241592
 140    1.0470158464482e-16
 141    2.8263003247841e-15
 142     0.003295111740649
 143    -2.9388441618789e-16
 144    0.0082947981768623
 145    8.8807185005934e-17
 146    3.0961908114154e-16
 147    0.0024165843031052
 148    -0.012988508379701
 149    -1.2202184174392e-16
 150    8.5629689358728e-16
 151    0.0052229906989273
 152    -1.5362245017938e-15
 153    1.4114158633768e-15
 154    0.0089892105383802
 155    -0.015218800735413
 156    4.5549139777168e-16
 157    3.8072279007159e-16
 158    -0.0046087253896714
 159    2.0950480743357e-16
 160    3.2731337570058e-16
 161    -0.0030485746949905
 162    0.0023007339443302
 163    -9.3678622655156e-17
 164    3.4331989560059e-16
 165    0.0080667008153332
 166    5.0788896776464e-15
 167    -1.3428828058406e-15
 168    -1.5553961931838e-14
 169    -9.0146423864887e-15
 170    -8.2556170718695e-15
 171      0.22784158979474
 172    -7.1003553820297e-15
 173    7.1087296480758e-15
 174      0.17783748433944
 175    -8.8634578192631e-15
 176    5.9265505110526e-15
 177     0.010166419436305
 178    2.4859465636214e-15
 179    -5.5094367640749e-15
 180     0.001245419987484
 181    1.6752929175718e-15
 182    -5.3851227432487e-16
 183    2.8719329652329e-16
 184    -0.017376454842089
 185    1.612771692042e-15
 186    8.5502168794755e-16
 187     0.030099976431116
 188    4.5360366775001e-16
 189    -0.027615742057294
 190    1.8087505472063e-15
 191    2.9341350561056e-15
 192     0.047834546365084
 193    1.0979510337181e-15
 194    0.0019024930241706
 195    1.5325315046516e-15
 196    1.1188525649868e-15
 197    -0.0032951117406511
 198    -2.3271088468283e-18
 199     0.008294798176863
 200    -1.6352391908692e-16
 201    -2.4032159864009e-16
 202    -0.0024165843031056
 203    -0.012988508379702
 204    3.580422796026e-16
 205    3.6309051487824e-16
 206    0.0052229906989226
 207    -4.166068726455e-16
 208    8.0388980178902e-17
 209    -0.0089892105383794
 210    -0.015218800735412
 211    -7.3480896874078e-16
 212    -2.4940200529105e-16
 213    -0.0046087253896705
 214    -8.9763035969063e-16
 215    -1.3067649525334e-16
 216    0.0030485746949905
 217    0.0023007339443309
 218    -4.6487321695352e-16
 219    6.1630883383913e-17
 220    -0.0080667008153335
 221    1.573790311158e-15
 222    -4.5767615489167e-15
 223    -1.3986766151145e-14
 224    -7.4050794789655e-15
 225    2.1410299153913e-14
 226      0.22784158979471
 227    8.9333159773215e-15
 228    -5.7929887523175e-15
 229      0.17783748433942
 230    7.8922556393819e-15
 231    -4.5993293248695e-15
 232     0.010166419436289
 233    2.3839190099975e-16
 234    -3.4539933510554e-15
 235    0.0012454199874744
 236    -6.9354500976623e-15
 237    4.5129152281705e-15
 238    3.4961988358533e-16
 239     0.017376454842088
 240    1.2208304359335e-15
 241    8.3893088134029e-16
 242    -0.030099976431111
 243    2.1612939710644e-16
 244     0.027615742057292
 245    4.4481403235335e-15
 246    2.6325184939377e-15
 247     -0.04783454636508
 248    -2.0533037212779e-15
 249    -0.001902493024175
 250    -5.4373559666068e-17
 251    -2.8134419625469e-15
 252    0.0032951117406506
 253    -2.3080606227629e-16
 254    0.0082947981768626
 255    4.3703638552281e-16
 256    2.0757202598702e-16
 257    -0.0024165843031056
 258      -0.0129885083797
 259    -1.1335082240318e-17
 260    3.1292957311739e-16
 261    0.0052229906989199
 262    1.3599943746441e-15
 263    1.051053930559e-15
 264    -0.008989210538375
 265    -0.015218800735407
 266    3.984296643647e-16
 267    -7.4820750855751e-16
 268    0.0046087253896697
 269    -1.2808265072588e-16
 270    -3.932331817164e-16
 271    -0.0030485746949906
 272    -0.0023007339443316
 273    -6.1797146980849e-16
 274    -2.5037925566774e-16
 275    0.0080667008153328
 276    -3.1438146395444e-15
 277    2.0324226631255e-15
 278    1.3367182143422e-14
 279    1.3048196604236e-15
 280    1.270962418483e-14
 281      0.22784158979473
 282    6.2749016463984e-15
 283    8.8095841496213e-15
 284      0.17783748433943
 285    6.3336110468967e-15
 286    8.342647898066e-15
 287     0.010166419436317
 288    1.4909583109421e-15
 289    -2.1628828547243e-15
 290    0.0012454199874798
 291    3.6692113379015e-15
 292    1.880973696934e-15
 293    3.8586002565727e-16
 294     0.017376454842089
 295    2.0663182436422e-15
 296    -4.8873192831138e-16
 297     0.030099976431113
 298    -3.9944569227657e-16
 299     0.027615742057294
 300    1.7529253188367e-15
 301    -2.4478217035621e-15
 302     0.047834546365082
 303    -2.9535823580821e-15
 304    -0.001902493024169
 305    2.0525228625025e-15
 306    -1.7968087014136e-15
 307    -0.0032951117406468
 308    -2.2801311330496e-17
 309    0.0082947981768629
 310    -3.101364191767e-16
 311    -4.5255608374496e-16
 312    0.0024165843031058
 313      -0.0129885083797
 314    -2.6676901347767e-16
 315    1.3147727605843e-16
 316    0.0052229906989257
 317    5.9867916002409e-16
 318    -5.3988203890912e-16
 319    0.0089892105383766
 320    -0.015218800735413
 321    -1.8114950087606e-16
 322    -2.8345781321536e-16
 323    0.0046087253896714
 324    -5.0322390293079e-16
 325    4.1295131519664e-17
 326    0.0030485746949909
 327    -0.0023007339443302
 328    -1.4900481101249e-16
 329    6.349147388624e-17
 330    -0.008066700815333
 331    2.835266597966e-16
 332    -2.3426068708139e-15
 333    -5.7358477484215e-15
 334    -2.41476896263e-16
 335    0.00070216013095762
 336    1.6508289903617e-16
 337    7.6699003513845e-17
 338    -2.1280947221855e-05
 339    -3.29488608451e-16
 340    1.6199383930021e-15
 341    -0.006574124210619
 342    2.2729783979561e-16
 343    2.4840908184243e-15
 344    -5.0228108961141e-17
 345    -0.0013125130428095
 346    3.1438506364647e-17
 347    -3.1624830559381e-16
 348    3.0280802763781e-18
 349    -7.9511351904921e-16
 350    0.00093246656353853
 351    7.3176197619979e-17
 352    1.9871851082137e-16
 353    -5.2308694141337e-17
 354    8.8686750451648e-17
 355    0.00074723642511301
 356    -8.2521479364823e-17
 357    7.3777286288897e-17
 358    -2.3577865820904e-17
 359    -0.00037376294138624
 360    -3.3163799339144e-18
 361    -1.1765267279848e-18
 362    -1.0500906483648e-16
 363    4.8544800228465e-15
 364    -2.7430077123528e-15
 365    0.0007021601309577
 366    -1.3368558536438e-16
 367    -1.5357900286732e-16
 368    -2.1280947223307e-05
 369    1.9689127147516e-16
 370    1.4497140037245e-16
 371    -0.0065741242106192
 372    2.7602871560672e-17
 373    2.0532631069848e-15
 374    4.7891306696096e-17
 375    0.0013125130428092
 376    2.1992115118519e-17
 377    -8.2402820817465e-17
 378    9.4724425431951e-17
 379    3.1600401637765e-16
 380    -0.00093246656354017
 381    2.3143922789902e-17
 382    1.9401882131331e-16
 383    -2.0364617576167e-16
 384    1.641034342857e-16
 385    0.00074723642511249
 386    5.6443132423058e-17
 387    4.941014016001e-16
 388    2.3399019829138e-17
 389    -0.00037376294138615
 390    -4.2142656514628e-19
 391    3.1083978565915e-16
 392    6.7504933558621e-16
 393    7.1777800235601e-15
 394    1.7054805133739e-16
 395    0.00070226828566816
 396    6.0541525417615e-18
 397    -3.9164674124324e-16
 398    -2.2685096648339e-05
 399    -4.0351631675038e-16
 400    1.3695013069427e-15
 401    -0.0065739860886142
 402    -1.5103728760978e-15
 403    -1.9413018277363e-15
 404    -1.240036845974e-16
 405    -0.00065619580952179
 406    -3.9149869607165e-17
 407    3.8238481118011e-17
 408    -0.0011365763469971
 409    -2.6639493893139e-16
 410    0.00046663815854115
 411    -3.9799834875206e-16
 412    2.9631422080619e-16
 413    0.00080846574822124
 414    1.5870522090509e-16
 415    0.00031810925085355
 416    2.2359289455882e-16
 417    -2.3229401708948e-16
 418    0.00031338785805016
 419    -0.00070601237096637
 420    -2.2029180972417e-16
 421    1.0766378274044e-17
 422    1.6119185740599e-15
 423    9.0135988960494e-15
 424    1.8110623056541e-15
 425    0.0007022682856679
 426    -1.2475667914092e-16
 427    1.2656010216121e-16
 428    -2.2685096646495e-05
 429    1.2366750251601e-15
 430    -1.08798368813e-15
 431    -0.006573986088614
 432    2.3274176471425e-15
 433    -2.545313353095e-15
 434    1.0407383199228e-16
 435    -0.00065619580952167
 436    -2.8295411337482e-16
 437    -2.0524133784226e-17
 438    0.0011365763469972
 439    3.0609202685438e-16
 440    0.00046663815853992
 441    -1.0327776990498e-15
 442    5.2012916024986e-17
 443    -0.00080846574821984
 444    2.4291133795383e-16
 445    0.00031810925085359
 446    2.5670008492527e-16
 447    6.9008905584686e-17
 448    -0.00031338785805035
 449    -0.00070601237096672
 450    1.9834761340126e-16
 451    -3.3382800559493e-16
 452    1.235473599287e-15
 453    -8.907319428029e-16
 454     2.14553801489e-15
 455    0.0007022682856673
 456    -1.1061312791837e-16
 457    -9.0042192326015e-17
 458    -2.2685096643504e-05
 459    -9.9040123368708e-16
 460    1.9008006592132e-15
 461    -0.0065739860886085
 462    -6.1978210153051e-16
 463    -1.5247863781829e-16
 464    1.0115080883364e-16
 465    0.00065619580952155
 466    -2.4590818487191e-16
 467    -4.8576189823317e-17
 468    -0.0011365763469969
 469    4.4000527270172e-16
 470    -0.00046663815853825
 471    -9.9763833611289e-16
 472    -6.8607743800919e-16
 473    0.00080846574821627
 474    9.0179199278549e-17
 475    0.00031810925085344
 476    -4.7381476145409e-16
 477    -1.6841756790684e-16
 478    -0.00031338785805071
 479    -0.00070601237096725
 480    3.0536525569177e-16
 481    6.2829968312987e-17
 482    -5.241211700981e-16
 483    -3.995883356205e-15
 484    8.2658029762701e-16
 485    0.00070226828566803
 486    9.6690148315539e-17
 487    3.9485157479545e-16
 488    -2.2685096647479e-05
 489    -2.5039203253437e-16
 490    -8.8853615057957e-16
 491    -0.0065739860886124
 492    -4.7981371189626e-16
 493    -1.5981032785037e-15
 494    -1.8123515583721e-16
 495    0.00065619580952164
 496    -9.3537298158788e-17
 497    1.3309767071555e-16
 498    0.0011365763469971
 499    -1.4719769561389e-16
 500    -0.00046663815854044
 501    -6.4294260816224e-16
 502    -4.2708613534911e-16
 503    -0.00080846574822028
 504    2.1695121169838e-16
 505    0.00031810925085339
 506    2.241639455207e-17
 507    2.1164258546817e-16
 508    0.00031338785805021
 509    -0.00070601237096659
 510    -2.5180352105642e-16
 Sym= A
 Ene=    -14.24084663
 Spin= Alpha
 Occup=    2.00000
   1    5.6327419782631e-16
   2    -2.557646388753e-15
   3    -8.2224157401114e-15
   4    -3.6114032072057e-15
   5    -7.8411574462051e-15
   6      -0.3356907267663
   7    1.3001700188282e-14
   8    1.1938401639165e-14
   9     -0.25992182372118
  10    1.1380390719964e-14
  11    1.0800541325894e-14
  12    -0.0082552110928599
  13    -2.9699803700995e-15
  14    -4.1678923668488e-16
  15    -0.0021378881888384
  16    1.320090116617e-16
  17    1.6695873299135e-15
  18    -2.4252221769913e-15
  19     0.048380929345397
  20    -1.5404088633841e-15
  21    -5.889886396676e-16
  22    -1.090187580631e-13
  23    -6.1718187905901e-15
  24     0.078743150625383
  25    -1.9466378125164e-15
  26    -1.5368256395769e-15
  27    -1.0809131071788e-13
  28    -7.1695217051314e-16
  29    -0.0056972648507808
  30    1.6427854798845e-15
  31    1.2743165467722e-15
  32    1.5087017955046e-14