[Molden Format]
made by pyscf v[2.14.0]
[Atoms] (AU)
C   1   6     0.00000000000000     0.00000000000000     2.63994739660000
C   2   6     0.00000000000000     0.00000000000000    -2.63994739660000
C   3   6     0.00000000000000     2.28619066600000     1.31997369830000
C   4   6     0.00000000000000    -2.28619066600000     1.31997369830000
C   5   6     0.00000000000000     2.28619066600000    -1.31997369830000
C   6   6     0.00000000000000    -2.28619066600000    -1.31997369830000
H   7   1     0.00000000000000     0.00000000000000     4.68841051610000
H   8   1     0.00000000000000     0.00000000000000    -4.68841051610000
H   9   1     0.00000000000000     4.06026555220000     2.34420525810000
H   10   1     0.00000000000000    -4.06026555220000     2.34420525810000
H   11   1     0.00000000000000     4.06026555220000    -2.34420525810000
H   12   1     0.00000000000000    -4.06026555220000    -2.34420525810000
[GTO]
1 0
 s    9 1.00
                 33980  9.1634545701884e-05
                  5089  0.00070890901290249
                  1157   0.003718751398649
                 326.6   0.015467105736054
                 106.1   0.053298075488517
                 38.11    0.14806833520486
                 14.75     0.3077621740375
                 6.035    0.40212964454196
                  2.53    0.21856450306747
 s    9 1.00
                 33980  -5.5710360210471e-05
                  5089  -0.00044275075746216
                  1157  -0.0023017175139589
                 326.6  -0.0097463809126108
                 106.1  -0.033754614039102
                 38.11   -0.10016136340998
                 14.75   -0.22628082255382
                 6.035   -0.41487505248738
                  2.53   -0.34604636850945
 s    1 1.00
                0.7355                   1
 s    1 1.00
                0.2905                   1
 s    1 1.00
                0.1111                   1
 p    3 1.00
                 34.51   0.031687855209339
                 7.915     0.2128943072562
                 2.368    0.83958675201643
 p    1 1.00
                0.8132                   1
 p    1 1.00
                 0.289                   1
 p    1 1.00
                0.1007                   1
 d    1 1.00
                 1.848                   1
 d    1 1.00
                 0.649                   1
 d    1 1.00
                 0.228                   1
 f    1 1.00
                 1.419                   1
 f    1 1.00
                 0.485                   1
 g    1 1.00
                 1.011                   1

2 0
 s    9 1.00
                 33980  9.1634545701884e-05
                  5089  0.00070890901290249
                  1157   0.003718751398649
                 326.6   0.015467105736054
                 106.1   0.053298075488517
                 38.11    0.14806833520486
                 14.75     0.3077621740375
                 6.035    0.40212964454196
                  2.53    0.21856450306747
 s    9 1.00
                 33980  -5.5710360210471e-05
                  5089  -0.00044275075746216
                  1157  -0.0023017175139589
                 326.6  -0.0097463809126108
                 106.1  -0.033754614039102
                 38.11   -0.10016136340998
                 14.75   -0.22628082255382
                 6.035   -0.41487505248738
                  2.53   -0.34604636850945
 s    1 1.00
                0.7355                   1
 s    1 1.00
                0.2905                   1
 s    1 1.00
                0.1111                   1
 p    3 1.00
                 34.51   0.031687855209339
                 7.915     0.2128943072562
                 2.368    0.83958675201643
 p    1 1.00
                0.8132                   1
 p    1 1.00
                 0.289                   1
 p    1 1.00
                0.1007                   1
 d    1 1.00
                 1.848                   1
 d    1 1.00
                 0.649                   1
 d    1 1.00
                 0.228                   1
 f    1 1.00
                 1.419                   1
 f    1 1.00
                 0.485                   1
 g    1 1.00
                 1.011                   1

3 0
 s    9 1.00
                 33980  9.1634545701884e-05
                  5089  0.00070890901290249
                  1157   0.003718751398649
                 326.6   0.015467105736054
                 106.1   0.053298075488517
                 38.11    0.14806833520486
                 14.75     0.3077621740375
                 6.035    0.40212964454196
                  2.53    0.21856450306747
 s    9 1.00
                 33980  -5.5710360210471e-05
                  5089  -0.00044275075746216
                  1157  -0.0023017175139589
                 326.6  -0.0097463809126108
                 106.1  -0.033754614039102
                 38.11   -0.10016136340998
                 14.75   -0.22628082255382
                 6.035   -0.41487505248738
                  2.53   -0.34604636850945
 s    1 1.00
                0.7355                   1
 s    1 1.00
                0.2905                   1
 s    1 1.00
                0.1111                   1
 p    3 1.00
                 34.51   0.031687855209339
                 7.915     0.2128943072562
                 2.368    0.83958675201643
 p    1 1.00
                0.8132                   1
 p    1 1.00
                 0.289                   1
 p    1 1.00
                0.1007                   1
 d    1 1.00
                 1.848                   1
 d    1 1.00
                 0.649                   1
 d    1 1.00
                 0.228                   1
 f    1 1.00
                 1.419                   1
 f    1 1.00
                 0.485                   1
 g    1 1.00
                 1.011                   1

4 0
 s    9 1.00
                 33980  9.1634545701884e-05
                  5089  0.00070890901290249
                  1157   0.003718751398649
                 326.6   0.015467105736054
                 106.1   0.053298075488517
                 38.11    0.14806833520486
                 14.75     0.3077621740375
                 6.035    0.40212964454196
                  2.53    0.21856450306747
 s    9 1.00
                 33980  -5.5710360210471e-05
                  5089  -0.00044275075746216
                  1157  -0.0023017175139589
                 326.6  -0.0097463809126108
                 106.1  -0.033754614039102
                 38.11   -0.10016136340998
                 14.75   -0.22628082255382
                 6.035   -0.41487505248738
                  2.53   -0.34604636850945
 s    1 1.00
                0.7355                   1
 s    1 1.00
                0.2905                   1
 s    1 1.00
                0.1111                   1
 p    3 1.00
                 34.51   0.031687855209339
                 7.915     0.2128943072562
                 2.368    0.83958675201643
 p    1 1.00
                0.8132                   1
 p    1 1.00
                 0.289                   1
 p    1 1.00
                0.1007                   1
 d    1 1.00
                 1.848                   1
 d    1 1.00
                 0.649                   1
 d    1 1.00
                 0.228                   1
 f    1 1.00
                 1.419                   1
 f    1 1.00
                 0.485                   1
 g    1 1.00
                 1.011                   1

5 0
 s    9 1.00
                 33980  9.1634545701884e-05
                  5089  0.00070890901290249
                  1157   0.003718751398649
                 326.6   0.015467105736054
                 106.1   0.053298075488517
                 38.11    0.14806833520486
                 14.75     0.3077621740375
                 6.035    0.40212964454196
                  2.53    0.21856450306747
 s    9 1.00
                 33980  -5.5710360210471e-05
                  5089  -0.00044275075746216
                  1157  -0.0023017175139589
                 326.6  -0.0097463809126108
                 106.1  -0.033754614039102
                 38.11   -0.10016136340998
                 14.75   -0.22628082255382
                 6.035   -0.41487505248738
                  2.53   -0.34604636850945
 s    1 1.00
                0.7355                   1
 s    1 1.00
                0.2905                   1
 s    1 1.00
                0.1111                   1
 p    3 1.00
                 34.51   0.031687855209339
                 7.915     0.2128943072562
                 2.368    0.83958675201643
 p    1 1.00
                0.8132                   1
 p    1 1.00
                 0.289                   1
 p    1 1.00
                0.1007                   1
 d    1 1.00
                 1.848                   1
 d    1 1.00
                 0.649                   1
 d    1 1.00
                 0.228                   1
 f    1 1.00
                 1.419                   1
 f    1 1.00
                 0.485                   1
 g    1 1.00
                 1.011                   1

6 0
 s    9 1.00
                 33980  9.1634545701884e-05
                  5089  0.00070890901290249
                  1157   0.003718751398649
                 326.6   0.015467105736054
                 106.1   0.053298075488517
                 38.11    0.14806833520486
                 14.75     0.3077621740375
                 6.035    0.40212964454196
                  2.53    0.21856450306747
 s    9 1.00
                 33980  -5.5710360210471e-05
                  5089  -0.00044275075746216
                  1157  -0.0023017175139589
                 326.6  -0.0097463809126108
                 106.1  -0.033754614039102
                 38.11   -0.10016136340998
                 14.75   -0.22628082255382
                 6.035   -0.41487505248738
                  2.53   -0.34604636850945
 s    1 1.00
                0.7355                   1
 s    1 1.00
                0.2905                   1
 s    1 1.00
                0.1111                   1
 p    3 1.00
                 34.51   0.031687855209339
                 7.915     0.2128943072562
                 2.368    0.83958675201643
 p    1 1.00
                0.8132                   1
 p    1 1.00
                 0.289                   1
 p    1 1.00
                0.1007                   1
 d    1 1.00
                 1.848                   1
 d    1 1.00
                 0.649                   1
 d    1 1.00
                 0.228                   1
 f    1 1.00
                 1.419                   1
 f    1 1.00
                 0.485                   1
 g    1 1.00
                 1.011                   1

7 0
 s    3 1.00
                 82.64   0.022950757792906
                 12.41    0.17554011805411
                 2.824    0.86470355096212
 s    1 1.00
                0.7977                   1
 s    1 1.00
                0.2581                   1
 s    1 1.00
               0.08989                   1
 p    1 1.00
                 2.292                   1
 p    1 1.00
                 0.838                   1
 p    1 1.00
                 0.292                   1
 d    1 1.00
                 2.062                   1
 d    1 1.00
                 0.662                   1
 f    1 1.00
                 1.397                   1

8 0
 s    3 1.00
                 82.64   0.022950757792906
                 12.41    0.17554011805411
                 2.824    0.86470355096212
 s    1 1.00
                0.7977                   1
 s    1 1.00
                0.2581                   1
 s    1 1.00
               0.08989                   1
 p    1 1.00
                 2.292                   1
 p    1 1.00
                 0.838                   1
 p    1 1.00
                 0.292                   1
 d    1 1.00
                 2.062                   1
 d    1 1.00
                 0.662                   1
 f    1 1.00
                 1.397                   1

9 0
 s    3 1.00
                 82.64   0.022950757792906
                 12.41    0.17554011805411
                 2.824    0.86470355096212
 s    1 1.00
                0.7977                   1
 s    1 1.00
                0.2581                   1
 s    1 1.00
               0.08989                   1
 p    1 1.00
                 2.292                   1
 p    1 1.00
                 0.838                   1
 p    1 1.00
                 0.292                   1
 d    1 1.00
                 2.062                   1
 d    1 1.00
                 0.662                   1
 f    1 1.00
                 1.397                   1

10 0
 s    3 1.00
                 82.64   0.022950757792906
                 12.41    0.17554011805411
                 2.824    0.86470355096212
 s    1 1.00
                0.7977                   1
 s    1 1.00
                0.2581                   1
 s    1 1.00
               0.08989                   1
 p    1 1.00
                 2.292                   1
 p    1 1.00
                 0.838                   1
 p    1 1.00
                 0.292                   1
 d    1 1.00
                 2.062                   1
 d    1 1.00
                 0.662                   1
 f    1 1.00
                 1.397                   1

11 0
 s    3 1.00
                 82.64   0.022950757792906
                 12.41    0.17554011805411
                 2.824    0.86470355096212
 s    1 1.00
                0.7977                   1
 s    1 1.00
                0.2581                   1
 s    1 1.00
               0.08989                   1
 p    1 1.00
                 2.292                   1
 p    1 1.00
                 0.838                   1
 p    1 1.00
                 0.292                   1
 d    1 1.00
                 2.062                   1
 d    1 1.00
                 0.662                   1
 f    1 1.00
                 1.397                   1

12 0
 s    3 1.00
                 82.64   0.022950757792906
                 12.41    0.17554011805411
                 2.824    0.86470355096212
 s    1 1.00
                0.7977                   1
 s    1 1.00
                0.2581                   1
 s    1 1.00
               0.08989                   1
 p    1 1.00
                 2.292                   1
 p    1 1.00
                 0.838                   1
 p    1 1.00
                 0.292                   1
 d    1 1.00
                 2.062                   1
 d    1 1.00
                 0.662                   1
 f    1 1.00
                 1.397                   1

[6d]
[10f]
[15g]

[MO]
 Sym= A
 Ene=    -14.29942585
 Spin= Alpha
 Occup=    2.00000
   1    6.7668664312959e-16
   2    3.8808067267085e-15
   3    9.2638082280557e-16
   4    3.761229864313e-14
   5    -1.6169221627352e-14
   6      0.23758396566902
   7    9.8626559734447e-15
   8    -1.9963333869734e-15
   9      0.13675700943187
  10    2.0779225925986e-15
  11    -6.1610861404933e-16
  12    0.0074473584600989
  13    -1.5877957004392e-16
  14    1.5607452075135e-14
  15    1.1416026974895e-05
  16    1.5574277156649e-15
  17    -2.1268743705461e-15
  18    -2.2606822207872e-16
  19    1.1278880028043e-15
  20    2.2000722049134e-15
  21    2.8648914430041e-15
  22    -0.045191952391054
  23    -1.7000073540628e-15
  24    -3.8842277537574e-15
  25    -1.2123133256892e-14
  26    -1.3169264531227e-14
  27    -1.5445208517005e-14
  28     0.002898355394428
  29    -4.8738673773227e-16
  30    2.5471031786511e-15
  31    6.7968214274609e-15
  32    2.4150512908768e-14
  33    -1.1079124235276e-15
  34    -0.00071226651370986
  35    -1.7340432110456e-15
  36    0.0075307581949084
  37    3.1592374896623e-15
  38    -2.1723750254074e-15
  39     0.018517418039738
  40    6.761703534125e-16
  41    -8.0633707976321e-16
  42     0.022833711130183
  43    1.6053601010008e-15
  44    -6.2703999297901e-16
  45    -3.3553522080662e-16
  46    -0.010787684250282
  47    1.0676914911934e-15
  48    -4.7769591045569e-15
  49    0.0027271539997732
  50    -2.2366035096888e-17
  51    -1.4479209362551e-15
  52     0.024156262813151
  53    1.5915368787453e-15
  54    -2.2312121061084e-15
  55    2.1396408164112e-15
  56    1.4683286528967e-15
  57    4.5139997640356e-15
  58    5.7395105375623e-15
  59    5.2476708218792e-15
  60    -0.011422649391113
  61    4.7595727830529e-15
  62    -1.2281529468851e-15
  63    -0.030178983996571
  64    -3.6097100372406e-16
  65    1.6399168417627e-15
  66    2.102146128112e-15
  67    2.9641146350093e-15
  68    -8.1623952697002e-17
  69    -0.015170758338819
  70    2.2967469435365e-15
  71    -1.3235095285895e-16
  72    2.0437962007381e-15
  73    3.4724759607631e-15
  74    -3.6647557556544e-14
  75    3.0151265414951e-14
  76      0.23758396566912
  77    -1.4097190070171e-14
  78    3.1944274306874e-15
  79      0.13675700943209
  80    -1.5457051009265e-14
  81    -3.5235048236276e-15
  82    0.0074473584595003
  83    -2.1894815665736e-14
  84    2.5206541843834e-14
  85    1.1416026985832e-05
  86    -2.6352666715563e-15
  87    4.6623145136684e-15
  88    -1.8044066382603e-16
  89    -4.3480248993852e-16
  90    1.5716586587627e-15
  91    7.4647806802447e-15
  92     0.045191952391041
  93    -2.4797801955314e-15
  94    -2.9265287074538e-15
  95    -1.8222643094039e-15
  96    -9.2054944000938e-15
  97    -4.1331467662673e-14
  98    -0.0028983553942501
  99    -1.1203537673665e-15
 100    -5.5980222244818e-15
 101    -2.0105618138912e-14
 102    -1.3708379271105e-14
 103    -2.0924073985292e-15
 104    0.00071226651352149
 105    -4.0343094865937e-15
 106    0.0075307581949076
 107    2.3434983913354e-15
 108    2.0825148340699e-16
 109     0.018517418039743
 110    1.9795895011979e-15
 111    -2.9598797668998e-18
 112     0.022833711130194
 113    1.3010505810631e-15
 114    -3.196456271751e-16
 115    8.9363169660521e-16
 116    -0.010787684250064
 117    6.2148160049343e-15
 118    -9.4161011383245e-15
 119    0.0027271539998817
 120    4.3983355514677e-15
 121    -3.8437054266565e-15
 122     0.024156262813246
 123    1.3145977615685e-15
 124    -4.7409753403918e-15
 125    -8.2357800055301e-15
 126    7.0098205077954e-16
 127    7.1548322531558e-17
 128    5.0004309748016e-15
 129    1.4568833088884e-14
 130     0.011422649391057
 131    1.2802323216687e-14
 132    -1.8788264785632e-15
 133      0.03017898399652
 134    -6.3464933763928e-16
 135    2.4892477992689e-16
 136    1.3828462694375e-15
 137    1.5621221898901e-15
 138    -3.1160224411891e-16
 139     0.015170758338797
 140    5.4280582140429e-15
 141    -7.3503451986392e-15
 142    -1.5426511804833e-14
 143    -6.0387040318744e-15
 144    -6.6548781492032e-14
 145    -1.5587406874631e-14
 146      0.23756602617309
 147    5.7612860027511e-15
 148    1.1146877849095e-14
 149      0.13674843977297
 150    2.0623513980262e-15
 151    8.0463506289176e-15
 152    0.0074414994942602
 153    8.8035559051137e-15
 154    2.8904442456496e-14
 155    1.1301886435227e-05
 156    3.0172576294975e-16
 157    8.0550261084282e-15
 158    2.2163945728674e-15
 159    3.178971138041e-17
 160    4.6742856631078e-16
 161    -0.039133402455627
 162     -0.02259154803161
 163    -1.2547605489282e-15
 164    1.2313469096166e-14
 165    1.7473994561953e-14
 166    1.4943260736542e-14
 167    0.0025026906739164
 168     0.001444738882904
 169    -5.7256229585107e-15
 170    2.5442555641259e-15
 171    -8.0951716653013e-15
 172    -1.0534151591858e-14
 173    -0.00061490248680697
 174    -0.00035497493182881
 175    -6.0603927361867e-15
 176    0.0075306974926399
 177    3.2736361381273e-16
 178    -6.7907104341195e-16
 179     0.021753447367673
 180    -2.5001673926735e-16
 181    -9.9604815008016e-16
 182     0.019594662075055
 183    4.3466579706027e-16
 184    2.3002762525726e-16
 185    0.0021570748317041
 186    -0.010784571386157
 187    -5.8376186690553e-15
 188    -4.1408710122975e-15
 189     0.018801074824577
 190    -2.1066943138346e-15
 191    -3.8487773095561e-15
 192    0.0080856178348325
 193    -9.695584246853e-16
 194    -1.0071632168873e-15
 195     0.010714427333568
 196    -1.5951454065126e-15
 197    -5.6930737919536e-15
 198    -5.7866959180105e-15
 199    -0.0098890126974793
 200    -0.0057090363106186
 201    -0.026942177848859
 202    8.7369798497181e-16
 203    -0.016489920914176
 204    7.7080046840889e-16
 205    -2.2866709860361e-15
 206    -1.7858533839541e-15
 207    -2.3099949151238e-15
 208    5.0480192099288e-16
 209    -0.0056998518706335
 210    -0.012048526577761
 211    -4.909924122737e-15
 212    -3.1135061538618e-15
 213    -2.4745476190146e-16
 214    -2.4909339003099e-14
 215    1.8645892959741e-14
 216      0.23756602617308
 217    -2.850073462386e-15
 218    -1.1055385347896e-14
 219      0.13674843977295
 220    -3.1621929326159e-15
 221    -1.2165569532102e-14
 222    0.0074414994942562
 223    1.1056419437764e-14
 224    5.2268035183685e-15
 225    1.1301886432118e-05
 226    6.1584163278108e-15
 227    3.046026431836e-15
 228    1.4388485316185e-15
 229    -1.4111485419987e-15
 230    2.7031277253926e-15
 231     0.039133402455628
 232    -0.022591548031608
 233    -2.4108851350063e-15
 234    -6.0066137287663e-15
 235    5.8608969060754e-15
 236    -2.934674180337e-15
 237    -0.0025026906739347
 238    0.0014447388828994
 239    2.2983256952056e-15
 240    -6.1687784729795e-15
 241    -1.5069227270171e-14
 242    -1.5728765595122e-14
 243    0.00061490248680285
 244    -0.00035497493182545
 245    2.549196648558e-15
 246    0.0075306974926442
 247    -8.7812518050582e-16
 248    1.2872100280522e-15
 249     0.021753447367674
 250    -7.202471012089e-17
 251    1.2271873371647e-15
 252     0.019594662075057
 253    -4.379703939542e-16
 254    5.4695100298536e-16
 255    -0.0021570748317036
 256    -0.010784571386156
 257    -1.757276202449e-15
 258    3.0392574116218e-15
 259     0.018801074824579
 260    -1.1125186654221e-15
 261    9.4583755755188e-16
 262    0.0080856178348301
 263    -1.9318808648254e-15
 264    1.8759725083506e-15
 265    -0.010714427333573
 266    2.3816220846111e-15
 267    -4.0021322127881e-15
 268    2.0452971595381e-15
 269    0.0098890126974846
 270    -0.0057090363106149
 271     0.026942177848862
 272    -1.7669597450762e-15
 273    -0.016489920914172
 274    -1.6982301216642e-15
 275    -4.5389932303751e-16
 276    1.1814392236267e-15
 277    -6.702416032612e-16
 278    -6.0287823485048e-16
 279    -0.0056998518706318
 280     0.012048526577763
 281    1.0996529147876e-15
 282    7.1096818922511e-15
 283    -3.3555191531458e-16
 284    7.9236043918393e-14
 285    1.1407490575315e-14
 286      0.23756602617313
 287    -2.3788542284271e-15
 288    1.2104851165903e-14
 289      0.13674843977286
 290    -1.4566071637787e-15
 291    6.770723381923e-15
 292    0.0074414994950388
 293    -1.8658072930294e-14
 294    8.7140934180443e-15
 295    1.1301886411002e-05
 296    1.7866717986534e-15
 297    6.1162755841427e-15
 298    4.6964995569744e-16
 299    -6.0199510701501e-16
 300    1.8041301175672e-15
 301     -0.03913340245566
 302     0.022591548031622
 303    -4.403658730665e-16
 304    -1.5609630657059e-14
 305    -3.1901880338557e-15
 306    -1.3074337557767e-14
 307    0.0025026906740496
 308    -0.0014447388829565
 309    -9.4984360412232e-15
 310    -1.4905416194209e-15
 311    6.4259847797189e-15
 312    1.5046268594667e-14
 313    -0.00061490248696119
 314    0.0003549749319358
 315    2.7520546640861e-16
 316    0.0075306974926139
 317    1.1419526033643e-15
 318    1.5916428004072e-15
 319     0.021753447367662
 320    7.515986456392e-16
 321    -1.7695205975314e-17
 322     0.019594662075044
 323    5.5033243833397e-16
 324    5.3945367713598e-16
 325    -0.002157074831702
 326    -0.010784571386467
 327    5.684174778585e-15
 328    4.4173298213093e-17
 329     0.018801074824461
 330    2.4132207922295e-15
 331    -1.1228876046533e-15
 332    0.0080856178347074
 333    2.3191871714427e-15
 334    -9.414480399691e-16
 335     -0.01071442733358
 336    4.2483527935227e-15
 337    4.2448352505575e-16
 338    6.2991770361766e-15
 339    -0.0098890126975272
 340    0.0057090363106354
 341    -0.026942177848912
 342    2.4862370485127e-15
 343     0.016489920914197
 344    2.1840338642863e-15
 345    1.3844777874057e-15
 346    2.8484424782749e-15
 347    1.0831609108945e-15
 348    1.1278727676583e-15
 349    0.0056998518706406
 350    -0.012048526577784
 351    -7.9527682086509e-16
 352    -6.1398491423156e-15
 353    -3.9504953804304e-15
 354    8.8433215179839e-15
 355    -2.8902332780963e-14
 356      0.23756602617312
 357    -7.8245001831755e-15
 358    -4.0949218953139e-15
 359      0.13674843977283
 360    -8.2067880081718e-15
 361    -4.3643031226528e-15
 362    0.0074414994950424
 363    -1.0877416935914e-14
 364    4.1072286670534e-15
 365    1.130188641424e-05
 366    -9.2996932842507e-15
 367    1.9653160118446e-15
 368    5.1219504322617e-17
 369    -2.2307759120512e-15
 370    6.1277404728608e-16
 371      0.03913340245567
 372     0.022591548031613
 373    -2.5083582890051e-15
 374    9.2514031235029e-15
 375    9.1510910542545e-15
 376    5.7189236472735e-15
 377    -0.002502690674117
 378    -0.0014447388829104
 379    3.5616545293662e-15
 380    8.1697761826618e-15
 381    8.2063755153289e-15
 382    2.0312840130032e-14
 383    0.00061490248696468
 384    0.00035497493193879
 385    -3.6634235688326e-15
 386    0.0075306974926237
 387    2.0732131626115e-15
 388    1.2582339600189e-15
 389     0.021753447367666
 390    1.3850547259014e-15
 391    6.0036343955932e-16
 392     0.019594662075046
 393    8.8929895191282e-16
 394    -9.5031857327567e-17
 395    0.0021570748317016
 396    -0.010784571386469
 397    5.6706326930614e-15
 398    2.1106644152267e-15
 399     0.018801074824446
 400    3.1509716283696e-15
 401    3.7328594243133e-16
 402    0.0080856178347086
 403    2.9839497081843e-15
 404    9.4837009505249e-16
 405     0.010714427333582
 406    -2.0472182532516e-15
 407    -4.5476990046956e-15
 408    -1.3208687021092e-16
 409    0.0098890126975516
 410    0.0057090363106184
 411     0.026942177848934
 412    -2.6155375819843e-15
 413     0.016489920914181
 414    -2.1155261315281e-15
 415    -1.7574169882322e-15
 416    -7.1859656765563e-16
 417    -1.7373015779445e-15
 418    -7.8832152392551e-16
 419     0.005699851870635
 420     0.012048526577794
 421    -2.6231158063047e-17
 422    3.7508974920809e-15
 423    -3.3782393147133e-14
 424    2.2895828044184e-15
 425     0.010824354553432
 426    1.8510806662674e-16
 427    2.0705297336828e-15
 428    -0.037330377748815
 429    -9.1489669525121e-16
 430    -8.2102221362386e-15
 431    -0.0026084252077433
 432    3.2641655403767e-16
 433    1.0027759797138e-14
 434    -7.1699723291869e-17
 435    -4.3824547201279e-16
 436    -7.579891433929e-17
 437    -4.2183482181193e-17
 438    -0.0020632920503504
 439    4.6172199770031e-17
 440    5.3663243080103e-16
 441    1.4683640485391e-15
 442    1.141975703556e-15
 443    -3.2383459947324e-17
 444    0.0036970362340297
 445    2.7454861808293e-16
 446     0.015000458816128
 447    2.6943754052706e-16
 448    2.644196954592e-15
 449    0.0071854257640556
 450    9.1845076111306e-17
 451    1.5794411837403e-15
 452    0.0080387639972763
 453     2.52342597385e-17
 454    1.1456680528348e-15
 455    6.4894616365721e-17
 456    2.5981180683776e-16
 457    -5.0228083473278e-15
 458    2.8459630619322e-14
 459    -1.1519390167245e-16
 460      0.01082435455342
 461    -3.2805361041571e-16
 462    5.5505183375903e-16
 463    -0.037330377748766
 464    1.4851066749647e-15
 465    -3.062108110011e-15
 466    -0.0026084252078057
 467    -2.0893171045056e-16
 468    9.7824612428003e-15
 469    7.3506395910208e-16
 470    3.1956154507706e-16
 471    9.1765074559807e-19
 472    9.6071830903738e-17
 473    0.0020632920503524
 474    5.8040055980693e-17
 475    -1.7047817915128e-15
 476    -1.1379317783896e-15
 477    3.8868635821503e-17
 478    -8.8506325973646e-16
 479    -0.0036970362340351
 480    3.2735561333554e-16
 481      0.01500045881611
 482    -4.8371854040323e-16
 483    9.8478257006664e-16
 484    0.0071854257640472
 485    -1.9102589828931e-16
 486    3.6131398395286e-16
 487    0.0080387639972681
 488    -1.3639067391086e-16
 489    2.1402585822093e-16
 490    -2.2882240311527e-16
 491    1.7396617484565e-16
 492    -1.1986046300544e-15
 493    1.6731651288396e-14
 494    -1.4939120870328e-15
 495     0.010823800858289
 496    1.0147129468894e-15
 497    1.4342576817801e-15
 498    -0.037329294496564
 499    -2.6955368508475e-15
 500    -4.8834030167141e-15
 501    -0.0026094106770822
 502    -3.5911047859429e-15
 503    -2.5283473868346e-15
 504    5.0102998207064e-17
 505    -4.9018854498818e-17
 506    1.9687557909257e-17
 507    -0.001786699675353
 508    -0.0010315436302543
 509    -3.6465823189568e-16
 510    -3.4642467670932e-17
 511    -5.132305962078e-16
 512    8.3544889765481e-16
 513    0.0032024346023604
 514    0.0018488103462767
 515    9.2160496804676e-16
 516     0.014999885103309
 517    1.7445549731604e-15
 518    1.7897627429498e-15
 519    0.0078249390248126
 520    4.7979855182537e-16
 521    7.8186235561896e-16
 522    0.0073984084102865
 523    5.3540006330186e-16
 524    8.2808984136539e-16
 525    0.00042663909173587
 526    -5.4816450853042e-16
 527    -2.7474993314994e-15
 528    2.2877025819882e-14
 529    -4.5739495521591e-16
 530     0.010823800858297
 531    2.1271739236621e-15
 532    -6.4209497183581e-16
 533    -0.037329294496592
 534    -8.3268914591423e-15
 535    2.780827832363e-15
 536    -0.0026094106770828
 537    5.0282234518778e-15
 538    -3.517840690261e-15
 539    -1.9233633950921e-16
 540    -2.5670699838076e-16
 541    -1.8342299486744e-16
 542    0.0017866996753531
 543    -0.0010315436302543
 544    2.7919419912137e-16
 545    -1.5858286109502e-15