[Molden Format]
made by pyscf v[2.14.0]
[Atoms] (AU)
O   1   8     0.00000000000000     0.00000000000000    -0.91370903760000
C   2   6     0.00000000000000     0.00000000000000     1.21827808690000
[GTO]
1 0
 s    9 1.00
                 61420  9.0738926792129e-05
                  9199  0.00070373078778785
                  2091  0.0036940825307373
                 590.9   0.015342944310251
                 192.3    0.05285340843582
                 69.32    0.14711905484927
                 26.97    0.30776425905235
                  11.1    0.40177986931198
                 4.682    0.21876147039285
 s    9 1.00
                 61420  -5.6106385876036e-05
                  9199  -0.00044604576771449
                  2091  -0.0023256096945617
                 590.9  -0.0098410600826567
                 192.3  -0.034101461335455
                 69.32   -0.10172368291255
                 26.97    -0.2328190588312
                  11.1   -0.42666101139432
                 4.682   -0.32354027947345
 s    1 1.00
                 1.428                   1
 s    1 1.00
                0.5547                   1
 s    1 1.00
                0.2067                   1
 p    3 1.00
                 63.42   0.031327502519451
                 14.66    0.21665424847957
                 4.459    0.83524284223889
 p    1 1.00
                 1.531                   1
 p    1 1.00
                0.5302                   1
 p    1 1.00
                 0.175                   1
 d    1 1.00
                 3.775                   1
 d    1 1.00
                   1.3                   1
 d    1 1.00
                 0.444                   1
 f    1 1.00
                 2.666                   1
 f    1 1.00
                 0.859                   1
 g    1 1.00
                 1.846                   1

2 0
 s    9 1.00
                 33980  9.1634545701884e-05
                  5089  0.00070890901290249
                  1157   0.003718751398649
                 326.6   0.015467105736054
                 106.1   0.053298075488517
                 38.11    0.14806833520486
                 14.75     0.3077621740375
                 6.035    0.40212964454196
                  2.53    0.21856450306747
 s    9 1.00
                 33980  -5.5710360210471e-05
                  5089  -0.00044275075746216
                  1157  -0.0023017175139589
                 326.6  -0.0097463809126108
                 106.1  -0.033754614039102
                 38.11   -0.10016136340998
                 14.75   -0.22628082255382
                 6.035   -0.41487505248738
                  2.53   -0.34604636850945
 s    1 1.00
                0.7355                   1
 s    1 1.00
                0.2905                   1
 s    1 1.00
                0.1111                   1
 p    3 1.00
                 34.51   0.031687855209339
                 7.915     0.2128943072562
                 2.368    0.83958675201643
 p    1 1.00
                0.8132                   1
 p    1 1.00
                 0.289                   1
 p    1 1.00
                0.1007                   1
 d    1 1.00
                 1.848                   1
 d    1 1.00
                 0.649                   1
 d    1 1.00
                 0.228                   1
 f    1 1.00
                 1.419                   1
 f    1 1.00
                 0.485                   1
 g    1 1.00
                 1.011                   1

[5d]
[7f]
[9g]

[MO]
 Sym= A
 Ene=     -21.7548946
 Spin= Alpha
 Occup=    2.00000
   1    -0.0031634736659431
   2    -0.0039260618897522
   3    -0.016327987380469
   4     0.050298565710788
   5      0.03598862577551
   6    -5.887054542684e-17
   7    5.9347780714704e-17
   8    -0.00073300743589688
   9    1.5983583467464e-16
  10    2.848298848243e-17
  11    -0.00073204869799141
  12    -1.5600080445661e-17
  13    -3.6735248064491e-17
  14     0.050442640933785
  15    -5.4564560350256e-18
  16    1.3289148591079e-18
  17     0.011415503145583
  18    -0.0024338792899038
  19    -8.8269748088871e-19
  20    6.4767163563897e-19
  21    -1.6448522649947e-18
  22    -1.5515714310451e-25
  23     0.011815296270789
  24    3.4053075019123e-18
  25    -1.686298422998e-18
  26    7.3915596485745e-18
  27    2.6780468930596e-25
  28     0.019219183496489
  29    1.0114959448835e-18
  30    -7.9753073019666e-18
  31    -3.472992731987e-17
  32    -5.8023346813412e-26
  33    0.00066266680383448
  34    -1.3437426357092e-18
  35    4.193653429008e-19
  36    6.1636303430588e-18
  37    1.5241719748361e-26
  38    1.7857215288769e-32
  39    -2.6788786945873e-33
  40    0.0088483863674269
  41    1.0676792208184e-18
  42    -2.8719216219549e-18
  43    -2.9871595036193e-17
  44    5.7733261882585e-27
  45    -8.6403051210179e-33
  46    4.1146654682415e-33
  47    0.0016842076707089
  48    -1.0600025055739e-18
  49    9.0516192528781e-20
  50    -9.0591585725603e-18
  51    6.9099566019504e-27
  52    3.7708126069249e-34
  53    1.2903390382704e-33
  54    1.6337806254419e-18
  55    2.2953181013243e-42
  56       1.2783207453878
  57      0.27067772358099
  58     -0.03965918540019
  59    -0.042715849112928
  60    -0.0078434067189701
  61    -6.6432983050496e-19
  62    -2.9582767019161e-19
  63    -0.027309752811706
  64    1.7531797096642e-18
  65    -1.934639959759e-19
  66     0.039357911585703
  67    -5.3131669638946e-18
  68    1.0041389312824e-17
  69     0.027243986013022
  70    8.3754178840401e-18
  71    -1.3717759189227e-18
  72    0.0004147548445368
  73     0.001286368586587
  74    -1.9618422931881e-18
  75    1.2393501512779e-18
  76    -3.0116663260842e-17
  77    2.1723738856683e-27
  78    -0.022381676107155
  79    4.0253326311209e-18
  80    -3.4426673584979e-18
  81     4.72801092888e-17
  82    -7.4585658462632e-27
  83    -0.0015850363066639
  84    -4.9918072641688e-18
  85    -4.6272675719641e-18
  86    -5.9982833235504e-18
  87    1.1947646734655e-26
  88    0.0043335163460931
  89    1.7400396718469e-19
  90    -8.1827638977408e-19
  91    -9.6463175247175e-19
  92    5.1380573870521e-27
  93    -1.4897081769871e-33
  94    9.8123688023823e-35
  95    0.0036251777553566
  96    3.9272163010628e-18
  97    2.3903915439577e-18
  98    -2.3579405368094e-17
  99    -9.5979274446274e-28
 100    4.0825095415151e-33
 101    -1.0220506711181e-33
 102    -0.0017766508135212
 103    -9.244885561294e-19
 104    8.4423239558461e-19
 105    1.9904865413975e-17
 106    -9.3667502358181e-27
 107    5.134099040173e-34
 108    -1.0144410949987e-33
 109    3.3868756354216e-18
 110    -6.9794082313296e-44
 Sym= A
 Ene=    -11.48538637
 Spin= Alpha
 Occup=    2.00000
   1     -0.12564423386016
   2      0.20865837362598
   3      0.70196995206724
   4    -0.070757309510954
   5    -0.056225953798619
   6    -8.8112222065577e-16
   7    -8.1227817958618e-16
   8      0.36394010128473
   9    -6.7112736450078e-16
  10    -7.944540595402e-16
  11      0.40610848022613
  12    -3.9782333931073e-17
  13    5.5657210111541e-18
  14    -0.065937749156046
  15    -1.109629156285e-18
  16    1.6761507613099e-18
  17    -0.024712172044174
  18     0.030385372045692
  19    -3.4129498133292e-17
  20    -3.9441643234322e-17
  21    -1.4516087664572e-16
  22    1.3254620613836e-20
  23     0.057495565862067
  24    -6.27983344484e-17
  25    -7.2687931011471e-17
  26    1.0147250364708e-16
  27    4.9566114229573e-22
  28     -0.03575890125983
  29    5.4131013928588e-18
  30    8.5314161253373e-18
  31    3.3848162586026e-19
  32    -5.5219738069554e-23
  33     0.015139280027358
  34    -1.3460906657147e-17
  35    -1.5664019751319e-17
  36    -2.2458179223638e-17
  37    2.6769374634029e-23
  38    -4.5311632801565e-31
  39    3.7333833854033e-31
  40    -0.00060525584489732
  41    -8.8401486548748e-18
  42    -8.8025149621173e-18
  43    4.9454384068715e-17
  44    2.0242655165457e-23
  45    3.050203564845e-31
  46    -2.2136931267803e-31
  47    0.0051874111762246
  48    -6.0447386045011e-18
  49    -6.6206426764097e-18
  50    2.1088857960517e-18
  51    1.1742281940437e-23
  52    9.3470681793667e-33
  53    -1.0379387414135e-32
  54    -3.794039444816e-17
  55    1.2122977808463e-38
  56    -0.038950210087553
  57      0.03488480468578
  58      0.12507892611092
  59      0.10792546833352
  60    0.0071287671099017
  61    -9.0596409293121e-18
  62    -1.0314320772371e-17
  63    -0.051872263335174
  64    -1.1829835610516e-17
  65    -1.175836967617e-17
  66     -0.11707477660491
  67    -9.451557603034e-18
  68    -1.2034988272587e-17
  69    -0.067825284379709
  70    5.2343960214776e-19
  71    4.698741421274e-19
  72    0.0043765498868372
  73     0.031193690801903
  74    7.5637841084142e-18
  75    8.1275081889389e-18
  76    -3.430405002388e-18
  77    4.3091423999918e-24
  78     0.052229821038838
  79    9.593210233606e-18
  80    1.1480539428555e-17
  81    -1.8891183133549e-17
  82    -5.7965847852091e-24
  83     0.007610061934105
  84    5.9238169998049e-18
  85    8.2607424025075e-18
  86    -6.8839868576407e-18
  87    8.7520467361353e-24
  88    -0.016129224198825
  89    -4.8863393114439e-18
  90    -4.7830392315495e-18
  91    3.2697059565517e-19
  92    7.925703681373e-25
  93    5.0611120939515e-33
  94    -6.7770545517473e-33
  95    -0.0063878467055931
  96    -4.4715598584581e-18
  97    -7.0668372774019e-18
  98    3.4529089670184e-17
  99    -1.1413006323813e-24
 100    -4.1080103117203e-32
 101    2.7551466617636e-32
 102    -0.00047501770249237
 103    7.6017646180912e-19
 104    3.9294989654497e-19
 105    -2.7539553558759e-17
 106    -4.2185123912358e-24
 107    3.6582244282343e-32
 108    -2.023596288376e-32
 109    -2.6833534524726e-18
 110    -1.2398024730938e-39
 Sym= A
 Ene=    -10.78556785
 Spin= Alpha
 Occup=    2.00000
   1    -1.0542400067234e-15
   2    7.5028578848308e-16
   3    3.6327506457744e-15
   4    -7.6008460899723e-16
   5    -2.2017210287587e-15
   6      0.37923127931655
   7      0.43146305447419
   8    -6.4838771180954e-16
   9      0.33400669966625
  10      0.38000966352923
  11    -4.3675047469293e-16
  12     0.010838613050108
  13     0.012331422400841
  14    -1.1863604084603e-15
  15    -0.00060633533663255
  16    -0.00068984630395187
  17    -6.4602205479134e-16
  18    1.3571834960223e-16
  19     0.017757424915124
  20     0.020203166804393
  21    -8.4213795124754e-17
  22    -2.4625376061627e-17
  23    -3.2535305215465e-16
  24     0.035891295216407
  25     0.040834627067192
  26    -7.2057139711596e-17
  27    2.488334487034e-16
  28    -1.2885189560487e-16
  29    -0.0019738344714811
  30    -0.0022456919999501
  31    1.1537388999516e-17
  32    -4.9943108038574e-17
  33    2.6389969282145e-17
  34    0.0071036036294877
  35      0.00808198766008
  36    -3.173835478965e-18
  37    3.5190724899176e-18
  38    2.2980564763939e-16
  39    -1.8894529716272e-16
  40    1.2655000419637e-17
  41      0.00533333299701
  42    0.0060678964814426
  43    -2.626669808747e-18
  44    8.4682522749447e-18
  45    -1.5673722240228e-16
  46    1.1451201570697e-16
  47    6.7983352463531e-17
  48    0.0032415379045183
  49    0.0036879970660592
  50    -1.3101427926681e-18
  51    1.8705244599704e-18
  52    -4.688994475491e-18
  53    5.2340905851565e-18
  54    -1.759157424944e-20
  55    -4.6479449296393e-33
  56    9.9643326722881e-16
  57    1.4400287131639e-15
  58    6.1610395119595e-16
  59    2.0046446439094e-15
  60    8.9798353686526e-16
  61    0.0065767463845334
  62    0.0074825660179897
  63    -1.3447880024014e-16
  64    0.0070145530223915
  65    0.0079806720539153
  66    -7.2317745179195e-16
  67    0.0032642738264835
  68    0.0037138644216083
  69    -2.0751586997928e-15
  70    6.4365612563426e-05
  71    7.3230730992897e-05
  72    -1.4308464728246e-16
  73    2.1467975813566e-17
  74    -0.0046760060614484
  75    -0.0053200354718848
  76    4.5351211036954e-20
  77    1.8309349944157e-18
  78    6.7040380395931e-16
  79    -0.0048815781616728
  80    -0.0055539211535654
  81    -5.106349228761e-19
  82    -5.4751550222183e-18
  83    5.3205176960384e-16
  84    -0.0022369677360607
  85    -0.0025450667832581
  86    2.2268671915197e-19
  87    -6.4128574885032e-18
  88    -3.4289894060613e-17
  89    0.0030517606364554
  90    0.0034720816492304
  91    -4.9971759702057e-19
  92    -1.5243631218053e-18
  93    -3.4583115786904e-18
  94    4.3017487199086e-18
  95    -2.8736549279758e-16
  96    0.0023674156776485
  97    0.0026934814061994
  98    6.1597023367335e-19
  99    8.2714561958279e-18
 100    2.0307016915351e-17
 101    -1.3566571847578e-17
 102    7.0576757790292e-17
 103    -0.00091567439403489
 104    -0.0010417908345169
 105    1.750647087125e-19
 106    3.6946703664797e-18
 107    -1.7752216616674e-17
 108    1.0953468060109e-17
 109    -9.8117137633092e-21
 110    -6.2759991937194e-34
 Sym= A
 Ene=    -10.78556785
 Spin= Alpha
 Occup=    2.00000
   1    9.1843560918712e-16
   2    1.1227373444551e-15
   3    6.5781504183687e-16
   4    1.066915202542e-15
   5    1.5067684884018e-15
   6      0.43146305447419
   7     -0.37923127931655
   8    -8.1429319657445e-17
   9      0.38000966352923
  10     -0.33400669966625
  11    8.0703018218043e-16
  12      0.01233142240084
  13    -0.010838613050109
  14    4.8125091053064e-16
  15    -0.00068984630395159
  16    0.00060633533663323
  17    -2.1027008447113e-16
  18     -6.8374965377e-17
  19     0.020203166804393
  20    -0.017757424915124
  21    6.0268564778399e-17
  22    -4.0503707584679e-17
  23    3.7372936802799e-16
  24     0.040834627067192
  25    -0.035891295216407
  26    -1.3854034758849e-16
  27    4.1023285440409e-17
  28    -2.4365424953161e-16
  29    -0.0022456919999498
  30    0.0019738344714818
  31    -1.1043321994881e-17
  32    4.6185857278906e-17
  33    -1.9585484592974e-17
  34      0.00808198766008
  35    -0.0071036036294875
  36    3.4126604042405e-17
  37    -2.07326994014e-18
  38    2.2061008495024e-16
  39    1.3486158070233e-16
  40    3.9924347032947e-17
  41    0.0060678964814427
  42    -0.0053333329970099
  43    1.8509398065122e-16
  44    3.730614001024e-17
  45    -2.5960732886689e-16
  46    -1.1413116708486e-16
  47    1.1667585722243e-17
  48    0.0036879970660593
  49    -0.0032415379045182
  50    -3.8805731395787e-17
  51    -4.0967830711412e-18
  52    -4.0015148903657e-18
  53    -3.5555015652617e-18
  54    -9.496743442059e-18
  55    -1.0224126175659e-20
  56    -6.1662617170957e-16
  57    -8.5449384290038e-16
  58    -2.6808174219996e-16
  59    -7.8673748865393e-16
  60    -1.1622980974287e-15
  61    0.0074825660179898
  62    -0.0065767463845333
  63    -8.3198944727245e-17
  64    0.0079806720539153
  65    -0.0070145530223914
  66    1.0134092929522e-16
  67    0.0037138644216081
  68    -0.0032642738264831
  69    1.7198951433515e-15
  70    7.3230730992857e-05
  71    -6.4365612563476e-05
  72    3.9264712819963e-16
  73    1.5176008980339e-16
  74    -0.0053200354718848
  75    0.0046760060614484
  76    1.0698891882856e-16
  77    -3.5490130008855e-17
  78    -7.1524205235473e-16
  79    -0.0055539211535655
  80    0.0048815781616727
  81    2.5876582455604e-16
  82    -4.1586367344918e-17
  83    -7.1483815153951e-16
  84    -0.0025450667832579
  85    0.0022369677360607
  86    2.405337680755e-17
  87    -8.5347574658096e-18
  88    2.8563098087394e-16
  89    0.0034720816492303
  90    -0.0030517606364555
  91    -9.7527514917701e-17
  92    1.5348043647238e-17
  93    -3.68291487476e-18
  94    -4.8631123254067e-18
  95    3.9054805832983e-16
  96    0.0026934814061995
  97    -0.0023674156776485
  98    -9.6888456626095e-17
  99    -3.4088552589329e-19
 100    2.0251750604928e-17
 101    1.1660882549219e-17
 102    -3.6877670177718e-16
 103    -0.0010417908345169
 104    0.00091567439403491
 105    -6.177056325686e-17
 106    -2.4015128677027e-18
 107    -1.5701841304026e-17
 108    -1.1890270121773e-17
 109     9.97138152457e-17
 110    2.5454035325201e-19
 Sym= A
 Ene=    -10.36974345
 Spin= Alpha
 Occup=    2.00000
   1     -0.16021590554863
   2      0.25281870958094
   3      0.92237366569049
   4     -0.12957633075707
   5    -0.033782098142217
   6    -1.2041541016717e-15
   7    -1.365111018456e-15
   8     -0.41102669502183
   9    -9.2133571120505e-16
  10    -1.1888867243804e-15
  11     -0.28572390878429
  12    -1.3352486851214e-16
  13    -7.447500619508e-17
  14     -0.11903860877091
  15    1.890247945312e-18
  16    3.7447608511375e-18
  17    -0.022237915562753
  18    -0.013269805198386
  19    -6.0071581177663e-17
  20    -6.926924653863e-17
  21    -1.7355085303282e-16
  22    1.6422147033286e-21
  23    -0.039696606330949
  24    -1.2587258257778e-16
  25    -1.518185331491e-16
  26    1.0245372561833e-16
  27    -2.7016426793725e-21
  28    -0.041872313248021
  29    1.2050738076975e-17
  30    5.4333123772123e-19
  31    -2.2601511825555e-17
  32    2.140668498926e-22
  33    -0.0041949868921609
  34    -2.4408079471709e-17
  35    -2.7996573012806e-17
  36    4.9662094981089e-18
  37    -1.4790816020132e-22
  38    -7.5591581836717e-31
  39    6.4501120583016e-31
  40    -0.021641324717914
  41    -1.6937282430023e-17
  42    -2.5919280910397e-17
  43    2.250797727966e-17
  44    -1.321634067911e-22
  45    5.2348996564162e-31
  46    -3.945017347835e-31
  47    -0.0055967218960725
  48    -1.0939888355868e-17
  49    -1.3496828568889e-17
  50    -1.0197529315164e-17
  51    -6.5258813831191e-23
  52    1.7087458147643e-32
  53    -1.7583547313031e-32
  54    -5.0139472873417e-17
  55    -7.4665240369854e-38
  56     0.019706901208898
  57     0.030800753417651
  58     0.035738755208538
  59      0.13732480831474
  60    -0.0060221932445182
  61    -2.4857284241223e-17
  62    -3.4186753653121e-17
  63    0.0042494586589682
  64    -2.211197348297e-17
  65    -3.5015368132083e-17
  66      -0.0663843429077
  67    -1.3552096158488e-17
  68    -2.9628250941771e-18
  69     -0.07821667396051
  70    1.1302149148118e-18
  71    -1.5346257713033e-18
  72    0.0092770145077203
  73    0.0072308589123078
  74    1.5428724893982e-17
  75    2.2417290765177e-17
  76    -3.8761207383329e-18
  77    -2.7607972632575e-23
  78     0.036575161882373
  79    1.7109474470297e-17
  80    1.8397825874648e-17
  81    -1.8398701562822e-19
  82    1.4930707909843e-23
  83     0.012989232070028
  84    8.3482157153252e-18
  85    2.5948382931955e-18
  86    -3.1161199067588e-18
  87    -2.5704373631887e-23
  88    -0.0022106129623208
  89    -9.8686100922511e-18
  90    -1.5223037760217e-17
  91    6.3449477632465e-18
  92    1.1383285585009e-23
  93    1.5386467054529e-32
  94    -1.7539305929201e-32
  95    -0.0051771462635761
  96    -9.4615446794304e-18
  97    -6.0949846817639e-18
  98    2.5569612129177e-18
  99    1.0248230159503e-23
 100    -6.7143527586911e-32
 101    4.519395925471e-32
 102    -0.0082074950380924
 103    3.3024606642454e-18
 104    6.158505140603e-18
 105    -2.036587583357e-17
 106    6.1095760561579e-25
 107    5.3880590927231e-32
 108    -4.1298038169183e-32
 109    1.9509944502353e-17
 110    9.5066395431224e-39
 Sym= A
 Ene=    -8.973524882
 Spin= Alpha
 Occup=    2.00000
   1     0.067997334899831
   2     -0.10717951659954
   3     -0.44075112217537
   4     -0.16523245057647
   5    -0.039021937031356
   6    -3.8515539289373e-16
   7    -1.5170074048681e-17
   8     -0.23544469445423
   9    5.8239976301179e-17
  10    -4.1230196169258e-16
  11       -0.216564589717
  12    4.4755880496785e-16
  13    -1.8959812026385e-16
  14    -0.079999459906208
  15    2.0551015648634e-17
  16    6.1844224273925e-18
  17    -0.0029814496901231
  18     0.020894781632593
  19    -5.9124078810792e-18
  20    -2.0838541980996e-17
  21    1.2030594310473e-16
  22    5.0959198635085e-20
  23       0.0219615544587
  24    3.1095208268217e-17
  25    -1.0104952636839e-16
  26    -1.3106709551374e-16
  27    -8.1850696934966e-20
  28    -0.013379507567533
  29    9.7712394613454e-17
  30    -3.4738518713138e-17
  31    1.4934361578677e-16
  32    8.8343665506143e-22
  33     0.010180545968987
  34    -7.3384624119001e-19
  35    -1.0952456401944e-17
  36    2.8726918137852e-17
  37    -4.1452876799465e-21
  38    -9.6718703986395e-32
  39    3.483879256737e-31
  40    0.0017392796001872
  41    3.5744493311709e-17
  42    -3.2346771351617e-17
  43    2.0907753912698e-17
  44    -4.9113015831601e-21
  45    1.3043963132825e-31
  46    -1.9452429792589e-31
  47    0.0037797552046293
  48    4.3934642702738e-18
  49    -7.7467671765726e-18
  50    3.0251447362651e-17
  51    -1.8779696780403e-21
  52    3.0948997443025e-32
  53    -4.8911856565673e-32
  54    3.6234840217568e-17
  55    -2.4010084938349e-36
  56     -0.19139319400717
  57        0.155784078526
  58      0.76683650067954
  59     0.056686221826771
  60     0.026388770497143
  61    1.5800183318158e-16
  62    -8.4995303541169e-17
  63     -0.37202295146887
  64    1.5926955441932e-16
  65    -7.4009970721757e-17
  66     -0.51800410964419
  67    -6.1480373771296e-17
  68    5.7058691467795e-17
  69     -0.08651098231823
  70    1.5584061538033e-17
  71    -8.5202606338629e-18
  72    0.0021676547828397
  73     0.094170534621884
  74    -5.3157579632183e-17
  75    3.3776660232368e-17
  76    -1.5106259557311e-17
  77    -1.1354750784627e-21
  78      0.19028279801311
  79    -3.8773036108431e-17
  80    1.0948128848015e-17
  81    -1.1423797560608e-16
  82    -7.5635362965499e-22
  83    0.0030381159216454
  84    3.7453685542182e-17
  85    -3.2334183293567e-17
  86    5.7477000393186e-18
  87    6.7164515108898e-22
  88    -0.060239232411307
  89    3.4248214341608e-17
  90    -2.2064949125843e-17
  91    -6.556411992165e-18
  92    1.2910762339554e-21
  93    1.6575207526198e-32
  94    -3.0380808803999e-32
  95    -0.046487165500297
  96    -7.5484814347809e-18
  97    1.210453447667e-17
  98    3.506110686782e-17
  99    7.6780327545987e-22
 100    -3.3781894192703e-32
 101    3.3042283953842e-32
 102      0.03057588936014
 103    -1.7307738317043e-17
 104    1.380233236766e-17
 105    -4.0779314367588e-17
 106    -1.4273438239097e-21
 107    -2.4061385860158e-32
 108    -7.3717260143401e-32
 109    -5.9494428563269e-17
 110    4.6229929050828e-37
 Sym= A
 Ene=    -8.281196268
 Spin= Alpha
 Occup=    0.00000
   1    2.2733464325913e-16
   2    3.4819995954832e-16
   3    4.7962891295076e-16
   4    -1.0480522930366e-15
   5    4.6753976467168e-16
   6    -0.094033125122709
   7     0.018052481152424
   8    8.7572157637093e-18
   9    -0.046215225784519
  10    0.0088723999265289
  11    6.2652107986344e-17
  12     0.017020178568156
  13    -0.0032675342057547
  14    -2.0075692849651e-16
  15    -0.0047689871100994
  16    0.00091555023624828
  17    4.6561315495447e-16
  18    -9.4622705649544e-18
  19     0.016174490017988
  20    -0.0031051789017834
  21    -4.5359252987017e-16
  22    6.099773548181e-17
  23    1.8374140850815e-17
  24      0.07010783944699
  25    -0.013459304352614
  26    2.5083892001041e-16
  27    2.5782856789298e-16
  28    -5.0265255015942e-17
  29    0.0043430454950571
  30    -0.00083377795687724
  31    -2.3547719777183e-16
  32    8.711105107365e-17
  33    3.193970584902e-17
  34     0.015080090272686
  35    -0.0028950760178318
  36    -3.0314123082129e-18
  37    -9.813827843184e-17
  38    -4.2635205006695e-17
  39    -4.8068132677915e-17
  40    -8.9412107132119e-17
  41     0.020086515897308
  42    -0.0038562097046208
  43    -5.8394934753316e-17
  44    1.2565866181332e-16
  45    5.0695118730485e-17
  46    1.0159757071808e-16
  47    -2.1395130204127e-18
  48     0.010636815908169
  49    -0.0020420561206856
  50    -3.5643585254039e-18
  51    1.7224327687916e-17
  52    1.5738013389052e-17
  53    7.9752711426259e-18
  54    -2.0033475642598e-18
  55    -5.2761528939826e-26
  56    -8.6069681062871e-16
  57    -1.0377843824291e-15
  58    -2.3168804442114e-16
  59    -3.1337359550866e-16
  60    6.8063627052329e-17
  61      0.56809585224563
  62     -0.10906305253656
  63    2.4254939167497e-16
  64      0.44140832914849
  65    -0.084741579438923
  66    5.2902431735906e-17
  67    0.0038098263495855
  68    -0.0007314105351727
  69    -5.0772237005586e-17
  70    0.0050545186292883
  71    -0.00097036658274134
  72    -2.1258616989963e-16
  73    -1.501616079086e-16
  74      -0.1073412908134
  75     0.020607383055248
  76    2.4622065995196e-17
  77    9.4470417966112e-18
  78    2.4980326048606e-16
  79      -0.1222933340782
  80     0.023477876606066
  81    -3.7106158252735e-17
  82    8.0218340101172e-20
  83    2.6493676947231e-16
  84    0.0029343674546582
  85    -0.00056333991984572
  86    3.0786872771946e-17
  87    -2.4089425860948e-17
  88    -1.5825381842678e-16
  89     0.051199825613282
  90    -0.009829343496614
  91    -1.4202413165938e-17
  92    -4.3441287790991e-17
  93    -5.8863566464082e-17
  94    -3.4255985532492e-17
  95    -2.205438208184e-16
  96     0.030341969448662
  97    -0.0058250518727803
  98    -9.8694595687903e-17
  99    4.5337764316918e-17
 100    1.5231252065042e-17
 101    2.5223042736154e-17
 102    1.1524271930537e-17
 103      -0.0233095856509
 104    0.0044749746973162
 105    -7.858247089166e-17
 106    6.5229590095616e-19
 107    4.8664978461351e-17
 108    1.0089401495823e-17
 109    -1.1033884501999e-17
 110    -1.1117243794789e-27
 Sym= A
 Ene=    -8.281196268
 Spin= Alpha
 Occup=    0.00000
   1    6.611120862685e-17
   2    1.2202791110468e-16
   3    -1.6644941367666e-17
   4    3.0391114535934e-15
   5    4.1892810816073e-15
   6    -0.018052481152425
   7    -0.094033125122709
   8    -6.9286753507695e-17
   9    -0.0088723999265281
  10    -0.046215225784518
  11    7.1363895212998e-19
  12    0.0032675342057552
  13     0.017020178568153
  14    2.1999319782404e-15
  15    -0.00091555023624663
  16    -0.0047689871101023
  17    -1.5925774934753e-15
  18    5.6956564082705e-17
  19    0.0031051789017834
  20     0.016174490017988
  21    8.9931115206906e-17
  22    2.3084915920452e-17
  23    5.342003519066e-16
  24     0.013459304352614
  25      0.07010783944699
  26    -1.1498786342217e-16
  27    -6.8886913175555e-16
  28    -1.0433496032652e-15
  29    0.00083377795687874
  30    0.0043430454950532
  31    1.5587722124034e-16
  32    6.7273301846169e-16
  33    -3.3894834838979e-17
  34    0.0028950760178318
  35     0.015080090272686
  36    -1.0577934903878e-16
  37    -5.1894780403803e-17
  38    1.9449741221343e-16
  39    -1.3527386016856e-16
  40    -2.6029779331481e-16
  41    0.0038562097046209
  42     0.020086515897307
  43    3.4602443617526e-16
  44    -3.0248988308299e-16
  45    1.9939935781791e-16
  46    5.2761899884725e-17
  47    -3.5844347514851e-17
  48    0.0020420561206856
  49     0.010636815908168
  50    -5.9129400013154e-17
  51    -5.2565176138742e-17
  52    9.3081885066907e-17
  53    6.2108204424406e-17
  54    -6.5472296067148e-17
  55    -4.3442883363611e-16
  56    -4.5810138006646e-16
  57    -3.678948978961e-16
  58    2.1356053109959e-15
  59    -3.2148617255633e-15
  60    -2.1103422892297e-15
  61      0.10906305253656
  62      0.56809585224563
  63    2.6749791245583e-17
  64     0.084741579438923
  65      0.44140832914849
  66    -8.4817217178103e-16
  67    0.00073141053517162
  68    0.0038098263495892
  69    4.3292965332559e-15
  70    0.00097036658274061
  71    0.0050545186292891
  72    1.4417199623378e-15
  73    -5.7595907813832e-17
  74    -0.020607383055249
  75      -0.1073412908134
  76    1.0129310575784e-17
  77    -4.7109836925357e-17
  78    -5.7891224442198e-16
  79    -0.023477876606066
  80      -0.1222933340782
  81    -1.7966113142606e-16
  82    -2.6047494732322e-16
  83    -2.8809390635557e-15
  84    0.00056333991984649
  85    0.0029343674546557
  86    -4.0441725248768e-17
  87    4.0430783475793e-16
  88    2.1335764708976e-16
  89    0.0098293434966142
  90     0.051199825613283
  91    -5.1692476350801e-17
  92    5.6953843405822e-17
  93    -8.6638571664183e-18
  94    1.3858672614422e-16
  95    7.9091731053882e-16
  96    0.0058250518727796
  97     0.030341969448663
  98    1.8560792362222e-16
  99    2.6874357822111e-17
 100    4.5859274223331e-17
 101    -5.7950198413077e-17
 102    2.6518505866351e-31
 103    -0.0044749746973162
 104      -0.0233095856509
 105    -1.3588918384469e-16
 106    -5.3838818357964e-17
 107    -1.7731934653876e-17
 108    -4.7018222902464e-17
 109    1.4876006303579e-16
 110    7.8324144432084e-17
 Sym= A
 Ene=    -7.555768044
 Spin= Alpha
 Occup=    0.00000
   1    0.0087773688641491
   2    -0.0052332394259021
   3    -0.019160679744982
   4    0.0015620138492997
   5    0.0028385582386184
   6    8.8064528744891e-17
   7    4.2151480420195e-17
   8    0.0011803913640469
   9    -4.5397381759906e-17
  10    -1.3688208849956e-16
  11    0.0053934369545359
  12    1.454391882362e-16
  13    1.0673631869181e-16
  14    -0.076559111288452
  15    -1.8967337526787e-16
  16    -2.5459664520878e-16
  17    -0.015736681872552
  18    -0.00019472353944182
  19    1.2378487299201e-17
  20    -1.1031104953557e-16
  21    2.3435318026892e-17
  22    -5.5809246763161e-17
  23    -0.058373428591096
  24    2.7621360851498e-17
  25    -8.8527692631402e-17
  26    -6.8746064560279e-17
  27    4.2774431441828e-19
  28    -0.070214980250085
  29    -3.7322103999711e-18
  30    -4.8506964701157e-17
  31    6.808421830807e-17
  32    2.2234490516652e-20
  33    -0.0079737144901959
  34    4.7511380091481e-18
  35    -6.2440955351627e-18
  36    -2.7560378180963e-17
  37    1.9422116826651e-20
  38    -2.13458528904e-30
  39    -1.8036668224779e-28
  40    -0.054484561517802
  41    4.517295696192e-18
  42    -2.9069390757156e-17
  43    9.2258363791053e-17
  44    5.0562658661783e-20
  45    1.3558654736306e-30