[Molden Format]
made by pyscf v[2.14.0]
[Atoms] (AU)
O   1   8     0.00000000000000     0.00000000000000    -0.91370903760000
C   2   6     0.00000000000000     0.00000000000000     1.21827808690000
[GTO]
1 0
 s    9 1.00
                 61420  9.0738926792129e-05
                  9199  0.00070373078778785
                  2091  0.0036940825307373
                 590.9   0.015342944310251
                 192.3    0.05285340843582
                 69.32    0.14711905484927
                 26.97    0.30776425905235
                  11.1    0.40177986931198
                 4.682    0.21876147039285
 s    9 1.00
                 61420  -5.6106385876036e-05
                  9199  -0.00044604576771449
                  2091  -0.0023256096945617
                 590.9  -0.0098410600826567
                 192.3  -0.034101461335455
                 69.32   -0.10172368291255
                 26.97    -0.2328190588312
                  11.1   -0.42666101139432
                 4.682   -0.32354027947345
 s    1 1.00
                 1.428                   1
 s    1 1.00
                0.5547                   1
 s    1 1.00
                0.2067                   1
 p    3 1.00
                 63.42   0.031327502519451
                 14.66    0.21665424847957
                 4.459    0.83524284223889
 p    1 1.00
                 1.531                   1
 p    1 1.00
                0.5302                   1
 p    1 1.00
                 0.175                   1
 d    1 1.00
                 3.775                   1
 d    1 1.00
                   1.3                   1
 d    1 1.00
                 0.444                   1
 f    1 1.00
                 2.666                   1
 f    1 1.00
                 0.859                   1
 g    1 1.00
                 1.846                   1

2 0
 s    9 1.00
                 33980  9.1634545701884e-05
                  5089  0.00070890901290249
                  1157   0.003718751398649
                 326.6   0.015467105736054
                 106.1   0.053298075488517
                 38.11    0.14806833520486
                 14.75     0.3077621740375
                 6.035    0.40212964454196
                  2.53    0.21856450306747
 s    9 1.00
                 33980  -5.5710360210471e-05
                  5089  -0.00044275075746216
                  1157  -0.0023017175139589
                 326.6  -0.0097463809126108
                 106.1  -0.033754614039102
                 38.11   -0.10016136340998
                 14.75   -0.22628082255382
                 6.035   -0.41487505248738
                  2.53   -0.34604636850945
 s    1 1.00
                0.7355                   1
 s    1 1.00
                0.2905                   1
 s    1 1.00
                0.1111                   1
 p    3 1.00
                 34.51   0.031687855209339
                 7.915     0.2128943072562
                 2.368    0.83958675201643
 p    1 1.00
                0.8132                   1
 p    1 1.00
                 0.289                   1
 p    1 1.00
                0.1007                   1
 d    1 1.00
                 1.848                   1
 d    1 1.00
                 0.649                   1
 d    1 1.00
                 0.228                   1
 f    1 1.00
                 1.419                   1
 f    1 1.00
                 0.485                   1
 g    1 1.00
                 1.011                   1

[6d]
[10f]
[15g]

[MO]
 Sym= A
 Ene=     -21.7569142
 Spin= Alpha
 Occup=    2.00000
   1    3.2339493089085e-05
   2    0.00027306459236374
   3    -0.0062159181122953
   4     0.074343502072642
   5    0.0047756178524493
   6    1.3792976363957e-16
   7    2.3977397240277e-16
   8    -0.00014945071518744
   9    4.7006423691332e-19
  10    -5.0977614661874e-16
  11    -0.021091926373136
  12    1.9610591495206e-17
  13    6.4354578563178e-16
  14      0.13791023442451
  15    -7.0527271014834e-18
  16    4.1398484190984e-18
  17    0.0015251917267212
  18    0.00011860963318567
  19    0.0001186096331854
  20    0.00011300079757313
  21    1.7694599656785e-21
  22    2.6993537092553e-18
  23    1.5431066290337e-18
  24    -0.002288000895526
  25    -0.0022880008955247
  26    0.0014786512192363
  27    -4.5314799435491e-21
  28    -4.7950709147532e-18
  29    -8.4191446318045e-18
  30    0.0035618218608711
  31     0.003561821860871
  32     0.031412708606767
  33    5.5724260934078e-22
  34    -9.0627441530293e-18
  35    -3.7191440418019e-18
  36    3.0819514500899e-18
  37    -4.6701826282387e-18
  38    -0.00080870211804509
  39    1.8868033906741e-18
  40    -1.8496058685974e-18
  41    -0.0014305923494005
  42    2.4733517421013e-18
  43    -1.0237672527777e-18
  44    -0.0014305923494005
  45    -1.1290938635643e-22
  46    -1.0833104197544e-17
  47    -8.3122322033926e-17
  48    -0.032444177746641
  49    -5.9851223296829e-18
  50    -3.7653027831991e-17
  51    -0.019154885820639
  52    -8.6193048342765e-18
  53    -4.399847262544e-17
  54    -0.019154885820639
  55    -6.662896102652e-23
  56    -0.00040144244428316
  57    -0.00040144244428419
  58    0.0044435457981794
  59    1.0082418434362e-21
  60    2.7044836410174e-18
  61    1.0056486874272e-21
  62    4.2871194581488e-18
  63    2.4088342069484e-18
  64    1.9240252389268e-18
  65    -0.00023506062639663
  66    0.00035119390680177
  67    0.00035119390680174
  68     1.53084049923e-18
  69    1.2717014823514e-18
  70    3.7257713436364e-22
  71       1.1057098308799
  72     0.032676840631378
  73     -0.16383467977939
  74     -0.22846028415341
  75    -0.035780598574808
  76    3.8322199927369e-19
  77    9.4985645266819e-18
  78     -0.03347027305938
  79    5.8198709623801e-18
  80    3.0970466351148e-18
  81     0.072967342367266
  82    1.2718499557676e-17
  83    -4.6438038966211e-17
  84    0.0096199245875264
  85    -8.6369274770871e-19
  86    4.3701236030024e-18
  87    0.00050698565162189
  88     0.052133236737787
  89     0.052133236737783
  90     0.071715999049338
  91    -9.7640259216154e-23
  92    3.3643815270164e-18
  93    -6.271256304887e-19
  94     0.078760783405233
  95     0.078760783405253
  96    -0.031433255925736
  97    5.1668525833488e-22
  98    -2.025599559111e-17
  99    -2.074816295427e-17
 100     0.030241923274581
 101     0.030241923274579
 102     0.021741056018766
 103    -1.6160087735585e-22
 104    -6.026662500244e-19
 105    -1.6470259601522e-18
 106    -2.7008946765613e-18
 107    7.3346179384012e-18
 108    -0.013108170317749
 109    -8.7702119281166e-19
 110    3.7711417636335e-18
 111    -0.0086999527976759
 112    -1.6211368867961e-18
 113    7.7488616630161e-18
 114    -0.0086999527976759
 115    -5.4197971557042e-23
 116    -2.930470762327e-18
 117    2.6985302235226e-17
 118     0.029725580327498
 119    -1.7799218254479e-18
 120    1.1734787371965e-17
 121    0.0038442402683124
 122    3.1531349817887e-18
 123    1.9392239287973e-17
 124    0.0038442402683123
 125    4.3278479765982e-24
 126    0.0015002148728672
 127    0.0015002148728549
 128     0.041979801180416
 129    -2.1195356659466e-22
 130    5.4619593332763e-18
 131    -2.2238679756171e-22
 132    2.7957881203813e-18
 133    6.9245643891162e-18
 134    2.3314839926815e-18
 135    0.00087843588231804
 136     0.015478355430274
 137     0.015478355430271
 138    1.2155046871801e-18
 139    2.4873488058124e-18
 140    3.8797219911556e-23
 Sym= A
 Ene=    -11.49468057
 Spin= Alpha
 Occup=    2.00000
   1     0.057267946496874
   2      0.46713642992167
   3      0.63448387067867
   4      0.47264011584539
   5      0.13713342574621
   6    8.430386789013e-16
   7    3.5874141649984e-16
   8      0.37608063833393
   9    1.4961431432125e-15
  10    1.0939361753224e-16
  11      0.36285908475753
  12    6.0207790766998e-17
  13    -2.9530422987841e-17
  14     -0.13259523276838
  15    2.7891913891113e-17
  16    1.3837627116375e-17
  17     0.016086509423672
  18    -0.022131003925778
  19    -0.022131003925777
  20     0.014334625620809
  21    2.0761353702985e-20
  22    5.5927172010861e-17
  23    1.1110565662988e-17
  24     -0.31804601362863
  25     -0.31804601362864
  26     -0.20111679361722
  27    -4.289181533961e-20
  28    1.159867560422e-16
  29    5.594232313305e-19
  30    -0.086220257546455
  31    -0.086220257546455
  32     -0.08658218812634
  33    3.6095960093544e-21
  34    4.4128410585881e-17
  35    -1.3479714462011e-17
  36    8.2574285024681e-17
  37    1.7311521974664e-17
  38     0.043601191794264
  39    3.6117600022509e-17
  40    7.9406270161098e-18
  41    0.0052475537728003
  42    6.6462373237391e-17
  43    1.2436576075258e-17
  44    0.0052475537728003
  45    -1.4924919770794e-21
  46    1.8528261520339e-16
  47    3.8675513408934e-18
  48     0.088186393701791
  49    8.3519618757128e-17
  50    2.1030114860277e-18
  51     0.023462283142781
  52    1.3171174094357e-16
  53    -7.3166513783454e-19
  54     0.023462283142781
  55    -1.7686814131147e-21
  56     0.086903585041144
  57     0.086903585041148
  58     0.079040045722403
  59    5.7557272469469e-21
  60    -5.3519333988007e-18
  61    5.6987221122475e-21
  62    2.4285269105334e-18
  63    1.9674381311983e-17
  64    4.1973516916959e-18
  65     0.050885528988686
  66     0.040399464408045
  67     0.040399464408045
  68    1.1985168106056e-18
  69    -2.6074103041224e-18
  70    1.4932951555184e-21
  71    -0.0077881317478557
  72     0.077868955609317
  73      0.06613008454994
  74      0.18437915100397
  75    0.0056186375693228
  76    2.390991775386e-17
  77    7.2195566809207e-18
  78    -0.059636993264256
  79    -3.3621765782615e-18
  80    7.8373830765792e-18
  81    -0.059095554869783
  82    2.1016647940937e-17
  83    1.0271263838186e-17
  84    0.0049440112662845
  85    -6.0719011744338e-18
  86    -2.3745275310566e-19
  87    0.0076025315691219
  88    -0.018532686743855
  89    -0.018532686743857
  90     0.015679869928114
  91    -1.7271758445373e-21
  92    -3.6790984752394e-17
  93    6.6933235659601e-18
  94    -0.077588430450028
  95    -0.077588430450014
  96     0.005846524629808
  97    8.4317471799133e-21
  98    8.4416610794588e-17
  99    -6.2781432350553e-17
 100    -0.024688105766836
 101    -0.024688105766837
 102    -0.015236646607105
 103    -1.7163486370199e-21
 104    1.1561921822038e-17
 105    -4.4093789131584e-18
 106    -6.3414527714215e-18
 107    8.2809098499515e-19
 108    -0.029158492435001
 109    -2.1224082848492e-18
 110    3.866074864206e-19
 111    0.0066784875210403
 112    2.2928623396596e-17
 113    1.9974841345977e-18
 114    0.0066784875210403
 115    -3.4874051722368e-22
 116    -2.0175233248817e-17
 117    -7.2886709152681e-19
 118    -0.034677490320984
 119    -1.0749515716817e-17
 120    -6.1453722552538e-19
 121    -0.0048326155919854
 122    -2.6771126140501e-17
 123    1.4221582007118e-17
 124    -0.0048326155919855
 125    -2.7336800509703e-23
 126     0.013907377976572
 127     0.013907377976562
 128    0.00093298687086136
 129    -3.2394064453887e-21
 130    -2.0774565250854e-17
 131    -3.5046759947167e-21
 132    1.8952635236373e-17
 133    -4.281087062396e-17
 134    1.6490832494844e-17
 135    0.0081433267091127
 136    -0.0056890788149154
 137    -0.0056890788149179
 138    8.7547764937299e-18
 139    -9.4190036365045e-18
 140    -2.1258238386096e-22
 Sym= A
 Ene=     -10.7860033
 Spin= Alpha
 Occup=    2.00000
   1    3.7256628721128e-16
   2    2.4584801802383e-16
   3    -4.6307483800611e-15
   4    4.904913438413e-15
   5    -3.5577316653864e-15
   6      0.47246236314122
   7     -0.35326651942436
   8    -2.0188813839563e-15
   9      0.35605240711277
  10     -0.26622521581851
  11    5.5502985169892e-15
  12    -0.004012043889025
  13    0.0029998596523669
  14    -2.288546431109e-14
  15    0.00069310637927557
  16    -0.00051824504404778
  17    -1.6598725526728e-15
  18    -1.1449655187702e-15
  19    -8.9357103892887e-16
  20    -1.3615798681993e-15
  21    3.8286877188289e-16
  22     0.024011038365496
  23    -0.017953379174476
  24    2.3342378681216e-15
  25    4.7409752092491e-16
  26    4.7549504646266e-15
  27    -1.9888334908102e-15
  28     0.032022494294153
  29    -0.023943653474047
  30    -2.8588836578768e-15
  31    -3.121517560407e-15
  32    -6.4750148634142e-15
  33    2.4080672261838e-16
  34    7.0733102714356e-05
  35    -5.2888100628378e-05
  36     0.023084140115979
  37    -0.017260324776895
  38    -5.0268645068126e-16
  39     0.010323541300291
  40    -0.0077190519029722
  41    -1.6212275628557e-16
  42     0.021940703743749
  43    -0.016405361886908
  44    3.9366651304683e-17
  45    4.8795981974214e-17
  46     0.010032983070203
  47    -0.0075017975719551
  48    7.6222947301201e-15
  49    0.0044868864324158
  50    -0.0033549058648671
  51    3.4263922670305e-15
  52     0.014210886995913
  53    -0.010625673024199
  54    3.6893555733337e-15
  55    -7.2479993785631e-17
  56    -2.9133940964192e-15
  57    -1.4435148479285e-15
  58    -3.9998260265431e-15
  59    7.755059825048e-16
  60    0.0012338588523877
  61    7.0868740700384e-16
  62    -0.00092257300527718
  63    0.0094270035460462
  64    -0.0070486984596427
  65    -1.3088565576352e-15
  66    -2.1772820100163e-15
  67    -1.2682365742108e-15
  68    -0.00041258719080146
  69    0.00055179845371571
  70    2.7934444723206e-16
  71    6.5570396015453e-15
  72    8.2807106276609e-15
  73    1.133598601252e-14
  74    2.5350727573729e-15
  75    -6.8746348432845e-15
  76    0.0089078689606655
  77    -0.0066605344863879
  78    -1.2152169496489e-15
  79    0.0025206235556059
  80    -0.0018847044330655
  81    -1.7520068952901e-15
  82    0.0081389658828305
  83    -0.0060856152223934
  84    -2.5779833058413e-15
  85    -0.00089953117812919
  86    0.00067259166698143
  87    -4.7134113610101e-16
  88    -1.9852920946645e-15
  89    -1.8685693462121e-15
  90    -3.106196117464e-15
  91    -2.9592315645696e-17
  92    -0.0058228623392791
  93    0.0043538331773332
  94    4.2761604802346e-15
  95    6.3214820218488e-15
  96    1.1073004375367e-14
  97    2.7342660417708e-17
  98    -0.0048983902958801
  99     0.003662592886968
 100    3.1242891939907e-15
 101    2.610304191506e-15
 102    5.3536134703233e-15
 103    -2.5915719848893e-17
 104    -0.0015193983548031
 105    0.0011360747655157
 106    -0.0001884912239467
 107    0.00014093744564862
 108    -5.9230480889969e-16
 109    -8.4295837981405e-05
 110    6.3029141809093e-05
 111    -3.900421414614e-16
 112    0.0051866034229014
 113    -0.0038780937526127
 114    -1.6834662346508e-16
 115    9.4265993220168e-18
 116    -0.0038971218419026
 117    0.0029139308784473
 118    -2.942722554877e-15
 119    -0.0017428458710187
 120    0.0013031495051888
 121    -1.6926391663746e-15
 122    0.00085483078859172
 123    -0.00063916857921565
 124    -1.5734599513912e-15
 125    2.4435077041216e-17
 126    -2.3526240383376e-15
 127    -3.6438725073686e-15
 128    -5.3910142941774e-15
 129    -1.8026679758931e-17
 130    0.0012145818525416
 131    -2.2992812870576e-17
 132    -0.00090815933093219
 133    -0.0013622156341045
 134    0.0010185471125534
 135    -1.8218010571941e-15
 136    -1.7004104621952e-15
 137    -2.564271182648e-15
 138    -0.00040614119967305
 139    0.0005431775173042
 140    -2.0185263732787e-17
 Sym= A
 Ene=     -10.7860033
 Spin= Alpha
 Occup=    2.00000
   1    -4.8841058523963e-15
   2    -7.8171854099479e-15
   3    -6.4474929444342e-15
   4    -1.9101409503372e-16
   5    1.3750585722157e-14
   6      0.35326651942436
   7      0.47246236314122
   8    -3.1298926043377e-16
   9      0.26622521581851
  10      0.35605240711277
  11    -1.0933218505178e-15
  12    -0.0029998596523833
  13    -0.004012043889012
  14    1.3801429786781e-14
  15    0.00051824504404933
  16    0.00069310637927441
  17    4.3742208429269e-15
  18    2.3127656778261e-16
  19    2.1395644882957e-15
  20    1.0909996984587e-15
  21    -7.203096133443e-17
  22     0.017953379174476
  23     0.024011038365496
  24    6.5559893802051e-15
  25    -3.3149563928735e-15
  26    3.5770843489535e-15
  27    -1.62177663167e-17
  28     0.023943653474048
  29     0.032022494294154
  30    -1.51227353086e-16
  31    -4.0834023453244e-16
  32    2.6168593871031e-15
  33    -3.6031918672448e-16
  34    5.2888100626492e-05
  35    7.0733102717263e-05
  36     0.017260324776894
  37     0.023084140115979
  38    -1.2717994715535e-15
  39     0.007719051902972
  40     0.010323541300291
  41    -4.0165239703866e-16
  42     0.016405361886908
  43     0.021940703743749
  44    -4.6207247984407e-16
  45    1.1683211978701e-17
  46    0.0075017975719612
  47     0.010032983070199
  48    -4.2980234760526e-15
  49    0.0033549058648698
  50    0.0044868864324142
  51    -2.2154061715343e-15
  52     0.010625673024201
  53     0.014210886995913
  54    -2.3124494038943e-15
  55    -5.2441919400313e-17
  56    -3.1616735579039e-15
  57    3.1024193280023e-15
  58    -9.9965591877097e-16
  59    -1.0274217553074e-17
  60    0.00092257300527721
  61    -1.0093893788986e-17
  62    0.0012338588523872
  63    0.0070486984596424
  64    0.0094270035460461
  65    8.7401129586444e-18
  66    -1.1274244397197e-15
  67    7.2887931629568e-16
  68    0.00055179845371553
  69    0.00041258719080125
  70    -1.4852361897085e-17
  71    2.2776079641101e-15
  72    2.9367744992481e-15
  73    -1.1225404611702e-15
  74    -6.6611886181665e-15
  75    1.7606883001187e-16
  76    0.0066605344863887
  77    0.0089078689606664
  78    -5.5037014184959e-16
  79    0.0018847044330626
  80    0.0025206235556039
  81    -8.4410549978204e-16
  82    0.0060856152223938
  83    0.0081389658828252
  84    4.5631131986619e-15
  85    -0.0006725916669818
  86    -0.0008995311781283
  87    2.383907704346e-15
  88    -1.1015739698682e-15
  89    -1.9211468998163e-15
  90    7.276441253336e-16
  91    -1.2740513483009e-17
  92    -0.004353833177331
  93    -0.0058228623392823
  94    4.1418732693433e-15
  95    7.0533481232292e-15
  96    -6.984213768924e-15
  97    1.728703569534e-17
  98    -0.0036625928869809
  99    -0.0048983902958623
 100    -2.1044747242416e-15
 101    -2.2876278203156e-15
 102    -4.2182616921772e-15
 103    -2.5738940478989e-18
 104    -0.0011360747655152
 105    -0.0015193983548039
 106    -0.00014093744564675
 107    -0.00018849122394543
 108    2.0308840590054e-15
 109    -6.3029141808281e-05
 110    -8.4295837980811e-05
 111    -3.0118397706191e-17
 112    0.0038780937526137
 113    0.0051866034229018
 114    -5.7232346396199e-18
 115    1.3303297394101e-17
 116    -0.0029139308784469
 117    -0.0038971218419003
 118    3.5881869752657e-15
 119    -0.0013031495051886
 120    -0.0017428458710177
 121    7.135473779895e-16
 122    0.00063916857921756
 123    0.00085483078859058
 124    6.9836751484372e-16
 125    -1.2561664608886e-17
 126    -2.8893763539793e-15
 127    -4.6199235971039e-15
 128    1.0782028588355e-15
 129    -2.2025926308254e-18
 130    0.00090815933093697
 131    1.0638358154478e-18
 132    0.0012145818525349
 133    -0.0010185471125494
 134    -0.0013622156341102
 135    -2.1314877431834e-15
 136    -1.8375664462742e-17
 137    -4.8693860164525e-16
 138    0.00054317751730118
 139    0.00040614119967523
 140    -1.2523019860569e-17
 Sym= A
 Ene=    -10.38787638
 Spin= Alpha
 Occup=    2.00000
   1     0.087862564647998
   2      0.59540527807422
   3      0.79612576819052
   4      0.75439435994432
   5      0.21852923442931
   6    -4.5872082211667e-17
   7    5.8724947674543e-16
   8     -0.41535722719101
   9    -3.8222683278127e-16
  10    1.4783990434803e-15
  11     -0.31735821512501
  12    1.5127663619216e-16
  13    -2.5419969171834e-16
  14      0.16219570265282
  15    -2.8048073406252e-16
  16    -1.2531021945702e-17
  17     0.026370209084886
  18    0.0002577912882388
  19    0.00025779128824077
  20    -0.034569968543376
  21    3.3899373975847e-18
  22    -5.1910283407484e-18
  23    5.1589385908661e-17
  24     -0.38574728509022
  25     -0.38574728509023
  26      -0.3943229045751
  27    1.5141168747018e-19
  28    -7.8900761444703e-17
  29    1.0249971084689e-16
  30    -0.099953022719901
  31      -0.0999530227199
  32    -0.061160911685618
  33    -7.9318797740386e-21
  34    -6.7965019917867e-17
  35    2.9796805923814e-17
  36    -3.1001481968633e-17
  37    4.6960827105815e-17
  38    -0.028021020193793
  39    -1.2793731211295e-17
  40    2.0898294655183e-17
  41    -0.0050961641803406
  42    -2.2144087767031e-17
  43    4.7581623836005e-17
  44    -0.0050961641803407
  45    5.0805499200179e-21
  46    -1.9717780656789e-16
  47    1.015097962953e-16
  48    -0.051687515114327
  49    -8.9571824165473e-17
  50    4.4912470398091e-17
  51    -0.021244288952135
  52    -1.3135364482953e-16
  53    8.2903539974896e-17
  54    -0.021244288952135
  55    7.0928398954638e-21
  56       0.1161048258852
  57       0.1161048258852
  58     0.091473280969123
  59    -1.4766113360519e-20
  60    1.1052287738509e-17
  61    -1.4566408691034e-20
  62    -2.802062971326e-18
  63    -8.6611892454296e-19
  64    1.8826745932354e-17
  65     0.067984024830627
  66     0.063991325024878
  67      0.06399132502488
  68    -1.4294429557747e-18
  69    5.2137830461695e-18
  70    -2.8324505123296e-21
  71    -0.00019219841706027
  72    -6.2748480647686e-06
  73     0.020601230867744
  74     -0.14356255607952
  75    -0.044572569201738
  76    -2.9398900692236e-17
  77    1.6106079675324e-17
  78    0.0013170002635757
  79    -3.7865228964411e-18
  80    -4.4493781556132e-18
  81     0.022647182595041
  82    1.4277783687715e-17
  83    -4.7338853877116e-18
  84     0.027205208625835
  85    3.4367969972625e-18
  86    -1.2973924023028e-18
  87     0.016690175237667
  88    -0.0070692636145586
  89    -0.007069263614558
  90     0.017828379361464
  91    6.4323207276858e-21
  92    4.5582999678843e-17
  93    -3.2620273384035e-17
  94     0.049006229509206
  95     0.049006229509202
  96    -0.082650305316119
  97    -3.0130364396196e-20
  98    -1.4730062907734e-16
  99    1.0703148805718e-16
 100     0.010574177016095
 101     0.010574177016095
 102    -0.0043068361332837
 103    5.5459599308184e-21
 104    -1.9985178516812e-17
 105    6.4409218764632e-18
 106    5.7602530194653e-18
 107    -2.0386767940203e-18
 108    -0.0047755992461031
 109    1.883219823473e-18
 110    -9.126266746996e-19
 111    0.0018793170691386
 112    -2.3374663113441e-17
 113    1.564352629747e-17
 114    0.0018793170691387
 115    7.5921754986598e-22
 116    7.5202883882511e-18
 117    -7.052959069529e-18
 118       0.0282045839817
 119    5.0018713494083e-18
 120    -2.8248147841538e-18
 121    0.0093374170070467
 122    3.3068120786184e-17
 123    -2.238097275745e-17
 124    0.0093374170070471
 125    -6.613013527769e-24
 126    -0.020298170508518
 127    -0.020298170508515
 128     0.050138583108398
 129    1.1419897035407e-20
 130    4.2078658782603e-17
 131    1.2352527760178e-20
 132    -3.2515230285565e-17
 133    6.7081849826596e-17
 134    -4.1970169927256e-17
 135     -0.01188539164799
 136    0.0059565990525219
 137    0.0059565990525227
 138    -1.4788030333644e-17
 139    1.8921233484626e-17
 140    1.5570659696931e-21
 Sym= A
 Ene=    -8.986828723
 Spin= Alpha
 Occup=    2.00000
   1    -0.044479600816425
   2     -0.26105430719307
   3     -0.38263393880333
   4     -0.43388632136986
   5    -0.099840415292895
   6    -9.3964533499874e-16
   7    -7.9633371025246e-16
   8     -0.23621041611073
   9    -1.4188285586588e-15
  10    1.4629869504197e-15
  11     -0.25471478797769
  12    5.8656512087287e-16
  13    -1.6859792567745e-15
  14      0.12250766304165
  15    -3.2617597788294e-16
  16    2.7639661933601e-16
  17    0.0054882464266971
  18    -0.0074332673003828
  19    -0.0074332673003826
  20    0.0089466747786294
  21    -2.8650910337568e-17
  22    -7.4545653734103e-17
  23    -1.7883800166721e-17
  24      0.16751210122681
  25      0.16751210122681
  26      0.26828321759507
  27    1.5575026955201e-18
  28    -1.6991081954639e-16
  29    1.0723746111184e-16
  30     0.055548127272805
  31     0.055548127272802
  32      0.10022387576331
  33    1.3207328184638e-20
  34    -3.4817665019834e-17
  35    1.1638363229398e-16
  36    -1.6050046783909e-17
  37    1.2842002998086e-17
  38     0.016112581265709
  39    -5.0720840668069e-18
  40    6.3570885732604e-18
  41    -0.0046748343437382
  42    -5.6033164016837e-17
  43    5.3202578860801e-18
  44    -0.0046748343437377
  45    6.1129376670672e-20
  46    3.651394540339e-17
  47    5.7552835055236e-16
  48    -0.035570424607566
  49    1.1493787646402e-17
  50    2.5616185170906e-16
  51    -0.033666278053105
  52    -4.3183113757424e-17
  53    3.167324011836e-16
  54    -0.033666278053107
  55    1.143811703442e-19
  56    -0.048156527919343
  57    -0.048156527919342
  58    -0.072837371376886
  59    -9.3243770733595e-20
  60    2.8298205919461e-18
  61    -9.10630598559e-20
  62    -2.4599137096204e-17
  63    -3.5114862435504e-17
  64    -1.6465234961195e-17
  65    -0.028197575465661
  66    -0.044901141932346
  67    -0.044901141932346
  68    -1.1626006011164e-17
  69    1.6558601134115e-18
  70    6.7095272992821e-21
  71     0.044481020016646
  72      0.49093199448124
  73      0.60626430560154
  74      0.81755876095799
  75      0.16039447655044
  76    -1.5853924874696e-16
  77    -8.5304119240171e-17
  78     -0.40124965653585
  79    -7.8094218316474e-17
  80    -6.8587197681065e-17
  81     -0.36079965731474
  82    -1.8592020652181e-17
  83    -1.517079712753e-16
  84    -0.056286101534845
  85    1.6448718001936e-18
  86    8.6539347455832e-18
  87    -0.010106121531239
  88    -0.096572176457194
  89    -0.096572176457214
  90     0.083940571263267
  91    9.4912587394739e-20
  92    6.7420608089115e-17
  93    -5.9715427388384e-17
  94     -0.35905511018886
  95     -0.35905511018873
  96     -0.36589112350939
  97    -3.9999634417446e-19
  98    -4.9552539769644e-17
  99    4.594691902512e-16
 100     -0.12225591326924
 101     -0.12225591326925
 102    -0.087206250860641
 103    6.8058285105721e-20
 104    -1.5475889494117e-18
 105    5.2761333370543e-17
 106    -6.687477121647e-18
 107    -7.1150133042114e-18
 108    -0.093436427574203
 109    -3.3150545153812e-18
 110    -2.9864386399697e-18
 111     0.013426803853593
 112    -4.6254098799504e-17
 113    1.3735192828313e-17
 114     0.013426803853594
 115    -7.1623287686908e-22
 116    4.8113510000493e-18
 117    3.0635411406385e-17
 118    -0.031007663922874
 119    2.7993171757998e-18
 120    1.4032825928228e-17
 121     0.029259060166049
 122    -1.8818377465614e-18
 123    -8.7805187157433e-17
 124     0.029259060166047
 125    -6.4949371150708e-21
 126     0.029217724155715
 127     0.029217724155639
 128      0.18108347932197
 129    1.4824200114032e-19
 130    2.4501658444773e-17
 131    1.5565672839224e-19
 132    -1.2996666912488e-16
 133    4.7670739886894e-17
 134    -1.5599487797322e-16
 135     0.017108147480949
 136     0.034131550200109
 137     0.034131550200088
 138    -5.810583566086e-17
 139    1.1025751274722e-17
 140    4.118829501104e-20
 Sym= A
 Ene=    -8.282600841
 Spin= Alpha
 Occup=    0.00000
   1    -1.1856257988839e-15
   2    -1.5755416058951e-15
   3    1.1151384509643e-15
   4    -5.4627119988471e-15
   5    -2.3076561998728e-15
   6    -0.093850251011295
   7     0.023302783189642
   8    -1.2485635952657e-16
   9    -0.039209162577657
  10    0.0097355372495017
  11    -9.7324642855009e-17
  12     0.034647207656474
  13    -0.0086028152236858
  14    -2.1390818833015e-15
  15    -0.0009360822093009
  16    0.00023242687724349
  17    1.7583609852697e-16
  18    6.8793538505461e-16
  19    4.0296347195487e-16
  20    4.3119021181116e-16
  21    6.0649248406362e-17
  22     0.019324638682125
  23    -0.0047982595738991
  24    -3.7070144678839e-16
  25    5.7529282080222e-16
  26    7.2411384390659e-16
  27    1.6081744652445e-16
  28     0.053282630397919
  29    -0.013229944198946
  30    1.1037209493574e-15
  31    1.7492178943162e-15
  32    6.4728272179247e-16
  33    4.1093467609928e-17
  34     0.031197832128208
  35    -0.0077463438854662
  36    -0.011584774639128
  37    0.0028764706413377
  38    -1.7434274201257e-16
  39    -0.0051808687194209
  40    0.0012863967778628
  41    -3.0943544820798e-17
  42     0.013918639282475
  43    -0.0034559634097886
  44    -1.9580348156089e-16
  45    1.7839625113571e-16
  46    -0.0071151573119833
  47    0.0017666758097628
  48    2.4616517869319e-16
  49    -0.0031819950840408
  50    0.00079008144096682
  51    2.0827554301583e-16
  52      0.03277176768859
  53    -0.0081371481584694
  54    8.0587172420928e-16
  55    -1.0047967691547e-15
  56    9.2589783303407e-16
  57    3.7489289312711e-16
  58    -3.9060749239847e-16
  59    5.7336336350776e-17
  60    -0.0012876813538509
  61    5.5487617446901e-17
  62    0.00031972806766868
  63     0.020407422436718
  64    -0.0050671120788491
  65    6.7170687075228e-16
  66    3.5791328599292e-16
  67    -7.1065096736098e-17
  68    0.0001429867387243
  69    -0.00057586860811405
  70    -1.369324714823e-17
  71    -1.684713610825e-15
  72    -2.2958441445575e-15
  73    -2.6967189630254e-15
  74    2.0080942381846e-15
  75    4.2566317907492e-16
  76      0.58447734606846
  77     -0.14512426688185
  78    -9.411301382766e-17
  79      0.31730733470651
  80    -0.078786619593159
  81    -1.1348198610368e-15
  82     0.041081967102013
  83     -0.01020054994063
  84    -8.5083048026786e-16
  85    -0.0010333472437913
  86    0.00025657754265022
  87    -7.295518835699e-17
  88    1.6369421113219e-15
  89    1.678074862376e-15
  90    1.5281328977661e-15
  91    -4.7300745337414e-17
  92     -0.14239701281816
  93     0.035356823032422