[Molden Format]
made by pyscf v[2.14.0]
[Atoms] (AU)
C   1   6     0.00000000000000     0.00000000000000     0.00000000000000
O   2   8     0.00000000000000     0.00000000000000     2.19605072990000
O   3   8     0.00000000000000     0.00000000000000    -2.19605072990000
[GTO]
1 0
 s    9 1.00
                 33980  9.1634545701884e-05
                  5089  0.00070890901290249
                  1157   0.003718751398649
                 326.6   0.015467105736054
                 106.1   0.053298075488517
                 38.11    0.14806833520486
                 14.75     0.3077621740375
                 6.035    0.40212964454196
                  2.53    0.21856450306747
 s    9 1.00
                 33980  -5.5710360210471e-05
                  5089  -0.00044275075746216
                  1157  -0.0023017175139589
                 326.6  -0.0097463809126108
                 106.1  -0.033754614039102
                 38.11   -0.10016136340998
                 14.75   -0.22628082255382
                 6.035   -0.41487505248738
                  2.53   -0.34604636850945
 s    1 1.00
                0.7355                   1
 s    1 1.00
                0.2905                   1
 s    1 1.00
                0.1111                   1
 p    3 1.00
                 34.51   0.031687855209339
                 7.915     0.2128943072562
                 2.368    0.83958675201643
 p    1 1.00
                0.8132                   1
 p    1 1.00
                 0.289                   1
 p    1 1.00
                0.1007                   1
 d    1 1.00
                 1.848                   1
 d    1 1.00
                 0.649                   1
 d    1 1.00
                 0.228                   1
 f    1 1.00
                 1.419                   1
 f    1 1.00
                 0.485                   1
 g    1 1.00
                 1.011                   1

2 0
 s    9 1.00
                 61420  9.0738926792129e-05
                  9199  0.00070373078778785
                  2091  0.0036940825307373
                 590.9   0.015342944310251
                 192.3    0.05285340843582
                 69.32    0.14711905484927
                 26.97    0.30776425905235
                  11.1    0.40177986931198
                 4.682    0.21876147039285
 s    9 1.00
                 61420  -5.6106385876036e-05
                  9199  -0.00044604576771449
                  2091  -0.0023256096945617
                 590.9  -0.0098410600826567
                 192.3  -0.034101461335455
                 69.32   -0.10172368291255
                 26.97    -0.2328190588312
                  11.1   -0.42666101139432
                 4.682   -0.32354027947345
 s    1 1.00
                 1.428                   1
 s    1 1.00
                0.5547                   1
 s    1 1.00
                0.2067                   1
 p    3 1.00
                 63.42   0.031327502519451
                 14.66    0.21665424847957
                 4.459    0.83524284223889
 p    1 1.00
                 1.531                   1
 p    1 1.00
                0.5302                   1
 p    1 1.00
                 0.175                   1
 d    1 1.00
                 3.775                   1
 d    1 1.00
                   1.3                   1
 d    1 1.00
                 0.444                   1
 f    1 1.00
                 2.666                   1
 f    1 1.00
                 0.859                   1
 g    1 1.00
                 1.846                   1

3 0
 s    9 1.00
                 61420  9.0738926792129e-05
                  9199  0.00070373078778785
                  2091  0.0036940825307373
                 590.9   0.015342944310251
                 192.3    0.05285340843582
                 69.32    0.14711905484927
                 26.97    0.30776425905235
                  11.1    0.40177986931198
                 4.682    0.21876147039285
 s    9 1.00
                 61420  -5.6106385876036e-05
                  9199  -0.00044604576771449
                  2091  -0.0023256096945617
                 590.9  -0.0098410600826567
                 192.3  -0.034101461335455
                 69.32   -0.10172368291255
                 26.97    -0.2328190588312
                  11.1   -0.42666101139432
                 4.682   -0.32354027947345
 s    1 1.00
                 1.428                   1
 s    1 1.00
                0.5547                   1
 s    1 1.00
                0.2067                   1
 p    3 1.00
                 63.42   0.031327502519451
                 14.66    0.21665424847957
                 4.459    0.83524284223889
 p    1 1.00
                 1.531                   1
 p    1 1.00
                0.5302                   1
 p    1 1.00
                 0.175                   1
 d    1 1.00
                 3.775                   1
 d    1 1.00
                   1.3                   1
 d    1 1.00
                 0.444                   1
 f    1 1.00
                 2.666                   1
 f    1 1.00
                 0.859                   1
 g    1 1.00
                 1.846                   1

[6d]
[10f]
[15g]

[MO]
 Sym= A
 Ene=    -12.54676156
 Spin= Alpha
 Occup=    2.00000
   1    -1.9072256887013e-16
   2    -4.2558233548566e-16
   3    -4.2497576454082e-15
   4    1.5522581678555e-14
   5    7.7452973466202e-15
   6     0.049501807078996
   7    0.0014560127229778
   8    -3.2040799893053e-15
   9     0.018029128252795
  10    0.0005302966026735
  11    -4.1932965412761e-15
  12      0.01415715711138
  13    0.00041640905840808
  14    5.6797981879909e-15
  15    -0.003328874768517
  16    -9.7913274325742e-05
  17    6.4085758313845e-16
  18    3.6358432699291e-16
  19    -3.5811938731902e-16
  20    -2.9589871995069e-15
  21    -5.3084302353314e-18
  22    1.0326393037481e-15
  23    1.2496834439359e-14
  24    -3.8705169961058e-15
  25    -8.9283245611636e-16
  26    8.399035671961e-15
  27    -1.3465642906358e-16
  28    -3.1068579034192e-14
  29    -3.600342027514e-15
  30    -4.76561430099e-16
  31    -8.3223074689836e-16
  32    1.1543336025558e-14
  33    3.3217099067394e-17
  34    -1.2112760265943e-14
  35    4.9803222572842e-15
  36    0.00064264348379467
  37    1.8902281431768e-05
  38    7.8288422461807e-16
  39    0.0002873989030124
  40    8.4533572422415e-06
  41    1.2486468061206e-15
  42     0.018085014127892
  43    0.00053194039206388
  44    7.5933764413098e-16
  45    6.1015770772075e-16
  46    -0.0092834589217125
  47    -0.00027305739125074
  48    -1.4157115372062e-15
  49    -0.0041516890430549
  50    -0.00012211497771919
  51    -5.5618951566438e-16
  52    -0.0058039807202542
  53    -0.00017071436925748
  54    5.739270170372e-16
  55    -1.3302334427548e-15
  56    1.8305272892167e-15
  57    4.6215738066118e-16
  58    -1.4869491705463e-14
  59    1.9725831860029e-18
  60    9.7765448757482e-15
  61    2.7576050729278e-17
  62    2.4726113292202e-15
  63    3.1689361112521e-15
  64    9.3541596661906e-15
  65    6.2455922819548e-16
  66    -1.7272450278443e-15
  67    -2.2892231557195e-15
  68    1.0426003695599e-15
  69    4.2185430883237e-15
  70    4.188750475946e-17
  71    -1.0111654771559e-14
  72    -6.193996045782e-14
  73    -8.3756482626173e-14
  74    -6.7727882093159e-14
  75    -2.8653114595032e-14
  76      0.41150210566751
  77     0.012103645033489
  78    -4.6040792025637e-14
  79      0.31149475205911
  80    0.0091620962731244
  81    -3.8930573589678e-14
  82    0.0031041839051584
  83    9.1304369007387e-05
  84    1.9553124292189e-14
  85    0.0029172292466801
  86    8.5805410945685e-05
  87    4.1195880103427e-15
  88    2.1110374224607e-16
  89    1.0107627393177e-16
  90    5.0019253509002e-15
  91    -1.5718230108175e-17
  92    -0.026616996246929
  93    -0.00078289435216322
  94    3.5111483924353e-14
  95    3.562095300364e-14
  96    3.9273789754033e-14
  97    -6.739150985601e-17
  98    -0.037920678709398
  99    -0.0011153732343194
 100    8.3148739654215e-15
 101    8.4035709812757e-15
 102    7.2617928047124e-15
 103    -5.5848704207481e-17
 104    -0.0053587128090061
 105    -0.00015761755962347
 106     0.019160043268003
 107    0.00056356057319772
 108    -3.2104832294566e-15
 109    0.0085686318398183
 110    0.00025203195022176
 111    -2.4999455656244e-16
 112     0.021140178255305
 113    0.00062180292645557
 114    -4.9024882484125e-16
 115    1.2713055477683e-17
 116    0.0067161138037705
 117    0.00019754323578618
 118    -9.8165871249577e-15
 119    0.0030035374019713
 120    8.8344020742622e-05
 121    -3.6807824280559e-15
 122     0.016018350746328
 123    0.00047115295106735
 124    -3.6578922949104e-15
 125    4.8528286945025e-17
 126    -9.9223445493821e-15
 127    -1.0534530980222e-14
 128    -6.5640128280794e-15
 129    1.361814306367e-19
 130    -0.0017458826587012
 131    1.5390542874038e-18
 132    -5.135221346302e-05
 133    -0.0098975794709914
 134    -0.00029112071835765
 135    -5.9009742224318e-15
 136    -5.369694058789e-15
 137    -5.0158905888206e-15
 138    -2.2965408019674e-05
 139    -0.00078078246111884
 140    -6.1695581269249e-18
 141    -1.0065329653853e-14
 142    -6.4586230328321e-14
 143    -8.7542334795719e-14
 144    -7.4354273735766e-14
 145    -2.176490683514e-14
 146      0.41150210566773
 147     0.012103645032846
 148    4.3349537976036e-14
 149      0.31149475205929
 150    0.0091620962726334
 151    2.917264279463e-14
 152    0.0031041839050199
 153    9.1304369018079e-05
 154    4.4320271176786e-15
 155    0.0029172292466787
 156    8.5805410947151e-05
 157    -2.1437891088391e-15
 158    -9.6939664882996e-16
 159    -1.040345005615e-15
 160    3.7501558562059e-15
 161    3.1240306041106e-17
 162     0.026616996246942
 163    0.00078289435212248
 164    4.4850808835579e-14
 165    4.5649148687556e-14
 166    4.8466188136706e-14
 167    -6.80223182547e-18
 168     0.037920678709418
 169    0.0011153732342598
 170    8.1939045886167e-15
 171    8.3923380409411e-15
 172    1.167755845948e-14
 173    4.7632009349521e-17
 174    0.0053587128089901
 175    0.00015761755962126
 176     0.019160043268025
 177    0.0005635605731687
 178    2.8134319861043e-15
 179    0.0085686318398281
 180    0.0002520319502088
 181    3.1460780872808e-16
 182     0.021140178255322
 183    0.00062180292642355
 184    1.0542003459358e-16
 185    3.5313342171897e-18
 186    0.0067161138038387
 187    0.00019754323577122
 188    1.0089545694761e-15
 189    0.0030035374020018
 190    8.834402073594e-05
 191    -1.4069080713116e-15
 192     0.016018350746357
 193    0.00047115295104136
 194    -1.3395110161519e-15
 195    2.3553822690931e-17
 196    -1.509037948633e-14
 197    -1.5473299283351e-14
 198    -1.1374634023505e-14
 199    2.2694946861818e-17
 200    0.0017458826587017
 201    2.0313430931288e-17
 202    5.1352213461796e-05
 203    0.0098975794709949
 204    0.00029112071834211
 205    -8.9659766684847e-15
 206    -8.2393458329044e-15
 207    -8.6641718361325e-15
 208    2.2965408019125e-05
 209    0.00078078246111897
 210    4.621513031705e-18
 Sym= A
 Ene=    -12.54676156
 Spin= Alpha
 Occup=    2.00000
   1    8.6731313066826e-16
   2    1.2040892419164e-15
   3    7.0434104644773e-16
   4    -2.6229019830776e-15
   5    2.4163257861462e-16
   6    -0.0014560127229793
   7     0.049501807078997
   8    7.8519095222058e-16
   9    -0.00053029660267107
  10     0.018029128252799
  11    4.3895218670051e-15
  12    -0.00041640905840842
  13     0.014157157111371
  14    -1.6581803680579e-14
  15    9.7913274325939e-05
  16    -0.0033288747685146
  17    4.3048837282111e-16
  18    -7.2142217552835e-16
  19    -1.1491992067549e-16
  20    1.8710482728219e-16
  21    1.9582451757737e-16
  22    1.6863284922123e-16
  23    -5.2581315756031e-17
  24    1.7263702985175e-15
  25    -1.1916873724773e-15
  26    -3.504304966944e-15
  27    -8.9388531126379e-16
  28    -1.044320539024e-15
  29    -8.6976019235406e-15
  30    -3.3492016956201e-16
  31    -3.6354444209965e-16
  32    -1.6455246949413e-15
  33    2.3103230510014e-16
  34    -6.144353578924e-16
  35    -5.6172898922734e-16
  36    -1.8902281433337e-05
  37    0.00064264348379546
  38    3.0230215315685e-16
  39    -8.4533572429331e-06
  40    0.00028739890301283
  41    5.9924712964951e-17
  42    -0.00053194039206441
  43     0.018085014127893
  44    3.0824929322973e-17
  45    2.7561581271462e-16
  46    0.00027305739125081
  47    -0.0092834589217075
  48    3.5185410977337e-15
  49    0.0001221149777192
  50    -0.0041516890430531
  51    2.8940114527515e-15
  52    0.00017071436925703
  53    -0.005803980720244
  54    3.1337201805356e-15
  55    1.0920145105461e-16
  56    -1.5329908318743e-15
  57    7.831487313453e-16
  58    1.3376516506929e-15
  59    5.0899368748426e-16
  60    3.5488959660407e-16
  61    1.7741377095844e-16
  62    3.2972396596847e-15
  63    6.0306517814144e-16
  64    2.3439182393034e-15
  65    -1.0151995391841e-16
  66    1.7558429379941e-16
  67    7.5984764436331e-16
  68    1.4405162156245e-15
  69    1.4722494675006e-16
  70    -7.1557510952183e-17
  71    4.6722218679826e-17
  72    4.592354754115e-16
  73    1.6302624659766e-15
  74    8.3296866558346e-16
  75    4.7557177142522e-15
  76    -0.012103645033167
  77      0.41150210566758
  78    5.643065704633e-16
  79    -0.0091620962728792
  80      0.31149475205918
  81    6.9709480458163e-16
  82    -9.1304369010408e-05
  83     0.003104183905112
  84    -3.218016664523e-15
  85    -8.5805410946443e-05
  86    0.0029172292466761
  87    -1.8986433076804e-15
  88    1.7893329237912e-16
  89    2.8062922380168e-16
  90    3.7403604652185e-17
  91    3.838764858561e-16
  92    0.0007828943521433
  93    -0.026616996246933
  94    -6.1644313172767e-16
  95    -7.2613697255694e-16
  96    1.1045290330602e-16
  97    -1.6112972205906e-15
  98    0.0011153732342876
  99    -0.037920678709406
 100    6.7691910770803e-16
 101    5.845818105674e-16
 102    3.8604511674045e-16
 103    6.5819810800972e-17
 104    0.00015761755962218
 105    -0.0053587128089953
 106    -0.00056356057318299
 107     0.019160043268004
 108    2.7542227809328e-17
 109    -0.00025203195021516
 110    0.0085686318398185
 111    -1.1070773659126e-17
 112    -0.00062180292643969
 113     0.021140178255308
 114    5.3896307409956e-18
 115    -1.8075868023797e-18
 116    -0.00019754323577985
 117    0.0067161138037902
 118    1.2416423773429e-15
 119    -8.8344020739802e-05
 120    0.0030035374019799
 121    2.4413340785856e-17
 122    -0.0004711529510546
 123     0.016018350746334
 124    4.7517470639514e-16
 125    -1.3487849043951e-17
 126    7.5325925491916e-16
 127    1.0790843631242e-15
 128    2.7018338134967e-16
 129    6.6375850324803e-16
 130    5.1352213463434e-05
 131     6.54987675169e-16
 132    -0.0017458826587008
 133    0.00029112071835069
 134    -0.0098975794709917
 135    -9.8952840015169e-17
 136    2.4968293188656e-16
 137    2.1229290604946e-16
 138    -0.00078078246111857
 139    2.2965408019882e-05
 140    3.1897195000515e-16
 141    -2.4677073943727e-16
 142    -6.6028544787428e-16
 143    -1.0402262127086e-15
 144    -6.8734519568629e-16
 145    -1.3214332425814e-15
 146    -0.012103645033168
 147      0.41150210566765
 148    2.5311821638287e-16
 149    -0.0091620962728804
 150      0.31149475205923
 151    -5.4629910447958e-16
 152    -9.1304369012334e-05
 153    0.0031041839050894
 154    1.4145429115942e-15
 155    -8.5805410946782e-05
 156    0.0029172292466772
 157    -7.2881762814109e-16
 158    -5.7093501755022e-17
 159    1.0209295897733e-16
 160    -2.1290051594181e-17
 161    -1.6211891281496e-15
 162    -0.00078289435214339
 163     0.026616996246941
 164    1.0416777701011e-15
 165    -2.9262095850806e-16
 166    2.2610675668356e-16
 167    7.1969402906296e-15
 168    -0.0011153732342876
 169     0.037920678709399
 170    -2.2305315532459e-16
 171    -1.8738292414605e-16
 172    7.1340794928166e-16
 173    -3.6087276394637e-16
 174    -0.00015761755962283
 175    0.0053587128089945
 176    -0.0005635605731828
 177     0.019160043268015
 178    1.8379193432526e-16
 179    -0.00025203195021508
 180     0.008568631839824
 181    1.9262923016204e-16
 182    -0.00062180292643918
 183     0.021140178255316
 184    -1.9656570613991e-16
 185    -2.1687556750392e-17
 186    -0.00019754323577886
 187    0.0067161138038033
 188    -1.9613472601001e-16
 189    -8.8344020739379e-05
 190    0.0030035374019857
 191    -3.0728333464461e-16
 192    -0.00047115295105471
 193     0.016018350746342
 194    -4.8508768185436e-16
 195    -1.2447225891594e-17
 196    -5.753995118701e-16
 197    5.6569912795768e-16
 198    -3.922287594312e-17
 199    -3.0231135117675e-15
 200    -5.1352213463203e-05
 201    -3.0033433289461e-15
 202    0.0017458826587068
 203    -0.00029112071835081
 204    0.0098975794709991
 205    -5.5686112320934e-16
 206    -1.8993455093083e-16
 207    -1.8346929216427e-16
 208    0.00078078246112117
 209    -2.2965408019737e-05
 210    -1.3312923693069e-15
 Sym= A
 Ene=    -12.54178125
 Spin= Alpha
 Occup=    2.00000
   1    -7.1904720879774e-17
   2    -1.1733872498791e-16
   3    3.4764139207908e-16
   4    -1.9705229114002e-15
   5    -1.9154386035556e-15
   6    1.5301491041577e-14
   7    -5.5579598584116e-17
   8    -4.1848002638024e-17
   9    3.2952802324677e-15
  10    3.6005107170119e-15
  11    -2.4122140827246e-15
  12    -7.5634024002663e-15
  13    -1.1310285366073e-15
  14    2.1144852011815e-14
  15    3.0965175522666e-15
  16    2.5125358675192e-16
  17    1.4154569977038e-16
  18    2.6031350653882e-15
  19    -2.0257045591614e-15
  20    4.6109911192079e-16
  21    -1.714402922794e-16
  22     0.016301992395753
  23    -0.001145153045277
  24    -1.1795250685045e-14
  25    1.0482751381935e-14
  26    4.5545623829776e-16
  27    1.3974890137973e-16
  28    -0.0044762792108249
  29    0.00031444161212455
  30    1.9144507432947e-15
  31    -2.0084422457381e-15
  32    -3.0028362731264e-15
  33    6.9357718126694e-17
  34     0.006367345559413
  35    -0.0004472818401997
  36    -2.2790483219763e-16
  37    -1.6630778370736e-15
  38    -7.6210665875587e-16
  39    -8.2856762067691e-17
  40    -6.0009559739871e-16
  41    5.5228832866586e-16
  42    6.2491524742089e-15
  43    -7.4618223412931e-16
  44    -5.8739552755572e-16
  45    -1.0836055950243e-16
  46    -6.3888589736707e-16
  47    1.8865037154286e-16
  48    -6.3857179844738e-15
  49    -3.4549416351195e-16
  50    -1.5197983200508e-16
  51    -5.0698231250619e-15
  52    -1.5184150516437e-14
  53    -2.0931853571749e-16
  54    -3.0834445814381e-15
  55    4.3346320988142e-17
  56    6.4962031977275e-15
  57    -5.7527011090588e-15
  58    1.6999439203761e-15
  59    -9.1732524315888e-17
  60    0.0031041038750118
  61    -1.7028965682023e-16
  62    -0.00021805150677428
  63     0.011998963075368
  64    -0.00084288157989201
  65    2.418213959809e-16
  66     2.97319807931e-15
  67    -2.4274573766676e-15
  68    -9.7515598349084e-05
  69    0.0013881974547492
  70    4.7080015314042e-17
  71    1.1336436627848e-15
  72    1.0474562352445e-14
  73    1.3786135103199e-14
  74    1.2834330128946e-14
  75    1.8809742275972e-15
  76      0.41327528696703
  77    -0.029031019148983
  78    8.2042469550013e-15
  79      0.31444887238468
  80    -0.022088838900993
  81    5.979746679473e-15
  82    -0.008165712676997
  83    0.00057361029940703
  84    2.4320364627243e-15
  85    -0.00080519691918387
  86    5.656202516003e-05
  87    2.0093124118342e-15
  88    2.911059093854e-16
  89    9.4661301593522e-17
  90    -5.7966189040532e-16
  91    -3.7715160087062e-18
  92    -0.026317423056633
  93    0.0018486990071823
  94    -7.3235316717633e-15
  95    -7.5091036504462e-15
  96    -9.1154653330216e-15
  97    -8.6890748675259e-18
  98    -0.037537516202252
  99    0.0026368679329222
 100    -2.1909010965422e-15
 101    -2.0476654093325e-15
 102    -3.2167126606883e-15
 103    1.2653907849298e-17
 104    -0.0014356616145751
 105    0.00010084977528997
 106     0.019351796589813
 107    -0.0013593902057131
 108    2.9647873335275e-16
 109     0.008654386532314
 110    -0.00060793778158439
 111    5.1400629115579e-16
 112     0.020912199724929
 113    -0.0014690025990121
 114    -7.4924598557211e-16
 115    -2.6983652960387e-18
 116     0.010339191593901
 117    -0.00072628893770058
 118    -6.0589734584514e-17
 119    0.0046238270472718
 120    -0.00032480628720096
 121    -1.1093644486909e-15
 122     0.017057717762045
 123    -0.0011982398817566
 124    -6.4418107209994e-16
 125    -1.2142596958152e-17
 126    2.8691981760641e-15
 127    7.7983852331158e-16
 128    1.8974979795716e-15
 129    -1.8407890333711e-18
 130    -0.0010870610301295
 131    -2.6174936030827e-18
 132    7.6361908338349e-05
 133    -0.010304875217509
 134    0.00072387834260068
 135    1.6172163753134e-15
 136    -1.3514400504351e-16
 137    2.7854585935782e-15
 138    3.4150083587247e-05
 139    -0.00048614847181215
 140    -2.5619979426563e-18
 141    4.1775135400334e-16
 142    9.7356699024353e-15
 143    1.4637671516492e-14
 144    1.2889931697468e-14
 145    1.0589928424394e-14
 146     -0.41327528696678
 147     0.029031019148985
 148    -7.771443650748e-15
 149      -0.3144488723845
 150     0.022088838900992
 151    -5.3186484405972e-15
 152    0.0081657126771423
 153    -0.00057361029940361
 154    7.9725210447373e-16
 155    0.00080519691917581
 156    -5.6562025159969e-05
 157    3.9601865615844e-15
 158    2.3330513243828e-16
 159    4.5321753089382e-16
 160    -8.0328095830878e-16
 161    5.2051761355177e-18
 162    -0.026317423056618
 163    0.0018486990071829
 164    -7.7540000521564e-15
 165    -5.84222256438e-15
 166    -5.6985663124525e-15
 167    1.5009464520177e-17
 168    -0.037537516202217
 169    0.0026368679329216
 170    -2.1826514281275e-15
 171    -7.8963108754028e-16
 172    -1.6377583080848e-15
 173    2.7315864245886e-18
 174    -0.0014356616145564
 175    0.0001008497752909
 176    -0.019351796589812
 177    0.0013593902057139
 178    -7.1638311877766e-16
 179    -0.0086543865323134
 180    0.00060793778158475
 181    6.7877637717153e-17
 182    -0.020912199724923
 183    0.0014690025990118
 184    -4.4803819498594e-16
 185    -6.978097169608e-19
 186    -0.010339191593962
 187     0.000726288937699
 188    -5.7978451618568e-16
 189    -0.0046238270472988
 190    0.00032480628720022
 191    -6.3618040169825e-16
 192    -0.017057717762057
 193    0.0011982398817564
 194    -2.4029921005783e-16
 195    -1.8191938433504e-17
 196    2.487373184542e-15
 197    2.1066979496805e-15
 198    5.1970310624635e-16
 199    -2.9328026056271e-18
 200    -0.0010870610301331
 201    -3.4207899846519e-18
 202    7.6361908338525e-05
 203    -0.010304875217508
 204    0.00072387834260066
 205    1.2188899662319e-15
 206    1.972492073553e-15
 207    -1.4412621371215e-16
 208     3.41500835873e-05
 209    -0.00048614847181363
 210    3.7046178997241e-19
 Sym= A
 Ene=    -12.54178125
 Spin= Alpha
 Occup=    2.00000
   1    3.8764744754529e-16
   2    5.3632565595984e-16
   3    7.5676230677902e-16
   4    1.0280493009726e-14
   5    -1.0008452248108e-15
   6    -3.2918274497372e-14
   7    -1.4584530803081e-15
   8    6.5242097247803e-15
   9    -1.1334243475321e-14
  10    -2.9551139944424e-15
  11    9.1774691129267e-15
  12    -9.5832874070056e-15
  13    1.799903573088e-15
  14    -3.8228479254613e-15
  15    2.5576577541243e-15
  16    -4.4734692038326e-17
  17    6.3441352733964e-16
  18    6.6105839495835e-16
  19    -4.6979232278578e-16
  20    -8.468686368661e-16
  21    2.6033657812798e-17
  22    0.0011451530452765
  23     0.016301992395749
  24    -3.1189760350741e-15
  25    1.7252048688443e-16
  26    5.5065947400196e-15
  27    -1.1295246242721e-16
  28    -0.00031444161212367
  29    -0.0044762792107993
  30    3.4124689668705e-16
  31    6.1587458044878e-16
  32     5.25977043607e-15
  33    -2.3652057249288e-17
  34    0.0004472818402004
  35    0.0063673455594128
  36    -3.2592255431875e-16
  37    7.3575947378059e-16
  38    3.4671264666661e-15
  39    -2.0164530509564e-16
  40    3.9325798491236e-16
  41    -1.5175786008662e-16
  42    -1.3281679553355e-14
  43    6.5829052264366e-16
  44    -3.1236055478185e-16
  45    1.8376228032275e-16
  46    6.2118179675625e-15
  47    1.1701349488089e-16
  48    -1.0259982442015e-15
  49    2.8662335533498e-15
  50    -2.4595213541027e-16
  51    2.9293049379998e-15
  52    3.0088946263093e-15
  53    -9.0858595809762e-16
  54    3.4143025835624e-15
  55    2.8336822690421e-16
  56    1.5286914516089e-15
  57    -2.5093940227319e-16
  58    -5.4667049656208e-16
  59    2.6997360329545e-16
  60    0.00021805150677391
  61    -6.7254290577449e-18
  62    0.0031041038750032
  63    0.00084288157989129
  64     0.011998963075361
  65    5.6964978666947e-16
  66    -3.7321915277302e-16
  67    -1.4574106051912e-15
  68    0.0013881974547456
  69    9.7515598348475e-05
  70    -2.4079973432058e-16
  71    -2.3620158769112e-16
  72    -7.3152616783351e-16
  73    -2.4398881218395e-15
  74    -3.9589917254075e-16
  75    -4.5292211009943e-15
  76     0.029031019148671
  77      0.41327528696692
  78    3.0572898112116e-15
  79     0.022088838900756
  80      0.31444887238463
  81    -6.9104748639028e-15
  82    -0.00057361029940314
  83    -0.008165712677073
  84    3.4985759413859e-14
  85    -5.6562025162982e-05
  86    -0.00080519691917982
  87    3.8258768785742e-16
  88    3.8681687920541e-16
  89    2.7671403448906e-16
  90    6.3936791997902e-17
  91    -2.2089331631029e-17
  92    -0.0018486990071581
  93    -0.026317423056622
  94    -6.9664530383926e-16
  95    -9.608403619408e-16
  96    1.7670396876386e-16
  97    -1.2312799252396e-15
  98    -0.0026368679329119
  99     -0.03753751620226
 100    -2.8886549197532e-16
 101    -1.2910656187094e-15
 102    -6.6875250748483e-15
 103    -1.0512315072371e-16
 104    -0.00010084977528596
 105    -0.0014356616145621
 106     0.001359390205698
 107     0.019351796589805
 108    -3.2935505595836e-16
 109    0.0006079377815776
 110    0.0086543865323102
 111    -1.7062557106329e-17
 112    0.0014690025989956
 113     0.020912199724924
 114    -2.2213231873572e-17
 115    8.9533233359099e-18
 116    0.00072628893769239
 117     0.010339191593931
 118    -1.185568672515e-14
 119    0.00032480628719727
 120     0.004623827047285
 121    -6.9265129832674e-15
 122    0.0011982398817438
 123      0.01705771776205
 124    -6.86005817035e-15
 125    -1.4331967164299e-17
 126    1.0159794394514e-16
 127    6.0661804770772e-16
 128    -1.3509407224059e-15
 129    6.0236095650958e-16
 130    -7.6361908329521e-05
 131    6.2410824418811e-16
 132    -0.001087061030122
 133    -0.00072387834258566
 134    -0.010304875217499
 135    3.6024729202446e-16
 136    2.5879000454649e-16
 137    4.7743389748231e-16
 138    -0.00048614847180874
 139    -3.4150083583298e-05
 140    2.8595113085673e-16
 141    -3.3276029791408e-16
 142    -1.3587843812212e-16
 143    -1.5535472598027e-17
 144    -3.7973555824498e-15
 145    -3.1166215134186e-15
 146    -0.029031019149297
 147     -0.41327528696687
 148    3.1743726357874e-15
 149     -0.02208883890123
 150     -0.31444887238457
 151    -3.7447001346058e-15
 152    0.00057361029940824
 153     0.008165712677079
 154    1.7408259320215e-14
 155    5.6562025157689e-05
 156    0.00080519691917932
 157    -1.6817077512165e-15
 158    -4.7584948109223e-16
 159    1.3616041697115e-16
 160    2.8870792265285e-16
 161    -5.1726997194262e-17
 162    -0.0018486990072016
 163    -0.026317423056632
 164    8.5966269323568e-16
 165    1.5221243559626e-15
 166    -2.0291097791235e-15
 167    -2.819679964811e-17
 168    -0.0026368679329569
 169    -0.037537516202198
 170    -7.2271016434639e-16
 171    -6.3694283888393e-17
 172    3.1710660989607e-15
 173    2.3026978505362e-17
 174    -0.00010084977529377
 175    -0.0014356616145643
 176    -0.0013593902057285
 177    -0.019351796589811
 178    -4.2546777925984e-16
 179    -0.0006079377815912
 180    -0.0086543865323133
 181    -3.3909244869499e-16
 182    -0.0014690025990281
 183    -0.020912199724925
 184    2.3782425410861e-16
 185    -2.685182895377e-17
 186    -0.00072628893770729
 187    -0.010339191593935
 188    -6.6407899950361e-15
 189    -0.00032480628720393
 190    -0.0046238270472866
 191    -4.0452275609403e-15
 192    -0.0011982398817696
 193     -0.01705771776205
 194    -4.3355849968417e-15
 195    4.7744262051537e-17
 196    -2.489767563037e-16
 197    -1.4964858799092e-15
 198    1.4904692858386e-15
 199    -5.185490139757e-17
 200    -7.6361908337236e-05
 201    3.9423574785276e-17
 202    -0.0010870610301455
 203    -0.00072387834260552
 204    -0.010304875217521
 205    -3.7163286823261e-16
 206    -1.4346553677119e-16
 207    -1.7704162254196e-16
 208    -0.00048614847181918
 209    -3.4150083586729e-05
 210    1.0078787578393e-16
 Sym= A
 Ene=    -12.01709836
 Spin= Alpha
 Occup=    2.00000
   1    -0.0014081616378056
   2    0.0010411998639545
   3     0.037978139980734
   4      -0.1083900353101
   5    -0.044562683359882
   6    2.5803208977973e-14
   7    -1.7919581239102e-14
   8    4.5838737571422e-14
   9    1.0810788510337e-14
  10    -8.9579514209834e-15
  11    8.0716582645701e-13
  12    4.5534945955904e-15
  13    -1.2245188840589e-15
  14    -7.4349121221368e-13
  15    -4.2391838247323e-16
  16    -3.5760858448869e-16
  17    1.5725793478249e-14
  18    -0.0031091447946797
  19    -0.0031091447946784
  20     0.022066715050242
  21    9.1919818741766e-16
  22    2.9146424343259e-16
  23    1.5755845186615e-16
  24     0.033036878319554
  25     0.033036878319563
  26    -0.070541586850312
  27    -3.8461379314795e-16
  28    -8.2023371446262e-17
  29    -3.9344210838396e-16
  30    0.00099683687652382
  31    0.00099683687652363