[Molden Format]
made by pyscf v[2.14.0]
[Atoms] (AU)
C   1   6     0.00000000000000     0.00000000000000     0.00000000000000
O   2   8     0.00000000000000     0.00000000000000     2.19605072990000
O   3   8     0.00000000000000     0.00000000000000    -2.19605072990000
[GTO]
1 0
 s    9 1.00
                 33980  9.1634545701884e-05
                  5089  0.00070890901290249
                  1157   0.003718751398649
                 326.6   0.015467105736054
                 106.1   0.053298075488517
                 38.11    0.14806833520486
                 14.75     0.3077621740375
                 6.035    0.40212964454196
                  2.53    0.21856450306747
 s    9 1.00
                 33980  -5.5710360210471e-05
                  5089  -0.00044275075746216
                  1157  -0.0023017175139589
                 326.6  -0.0097463809126108
                 106.1  -0.033754614039102
                 38.11   -0.10016136340998
                 14.75   -0.22628082255382
                 6.035   -0.41487505248738
                  2.53   -0.34604636850945
 s    1 1.00
                0.7355                   1
 s    1 1.00
                0.2905                   1
 s    1 1.00
                0.1111                   1
 p    3 1.00
                 34.51   0.031687855209339
                 7.915     0.2128943072562
                 2.368    0.83958675201643
 p    1 1.00
                0.8132                   1
 p    1 1.00
                 0.289                   1
 p    1 1.00
                0.1007                   1
 d    1 1.00
                 1.848                   1
 d    1 1.00
                 0.649                   1
 d    1 1.00
                 0.228                   1
 f    1 1.00
                 1.419                   1
 f    1 1.00
                 0.485                   1
 g    1 1.00
                 1.011                   1

2 0
 s    9 1.00
                 61420  9.0738926792129e-05
                  9199  0.00070373078778785
                  2091  0.0036940825307373
                 590.9   0.015342944310251
                 192.3    0.05285340843582
                 69.32    0.14711905484927
                 26.97    0.30776425905235
                  11.1    0.40177986931198
                 4.682    0.21876147039285
 s    9 1.00
                 61420  -5.6106385876036e-05
                  9199  -0.00044604576771449
                  2091  -0.0023256096945617
                 590.9  -0.0098410600826567
                 192.3  -0.034101461335455
                 69.32   -0.10172368291255
                 26.97    -0.2328190588312
                  11.1   -0.42666101139432
                 4.682   -0.32354027947345
 s    1 1.00
                 1.428                   1
 s    1 1.00
                0.5547                   1
 s    1 1.00
                0.2067                   1
 p    3 1.00
                 63.42   0.031327502519451
                 14.66    0.21665424847957
                 4.459    0.83524284223889
 p    1 1.00
                 1.531                   1
 p    1 1.00
                0.5302                   1
 p    1 1.00
                 0.175                   1
 d    1 1.00
                 3.775                   1
 d    1 1.00
                   1.3                   1
 d    1 1.00
                 0.444                   1
 f    1 1.00
                 2.666                   1
 f    1 1.00
                 0.859                   1
 g    1 1.00
                 1.846                   1

3 0
 s    9 1.00
                 61420  9.0738926792129e-05
                  9199  0.00070373078778785
                  2091  0.0036940825307373
                 590.9   0.015342944310251
                 192.3    0.05285340843582
                 69.32    0.14711905484927
                 26.97    0.30776425905235
                  11.1    0.40177986931198
                 4.682    0.21876147039285
 s    9 1.00
                 61420  -5.6106385876036e-05
                  9199  -0.00044604576771449
                  2091  -0.0023256096945617
                 590.9  -0.0098410600826567
                 192.3  -0.034101461335455
                 69.32   -0.10172368291255
                 26.97    -0.2328190588312
                  11.1   -0.42666101139432
                 4.682   -0.32354027947345
 s    1 1.00
                 1.428                   1
 s    1 1.00
                0.5547                   1
 s    1 1.00
                0.2067                   1
 p    3 1.00
                 63.42   0.031327502519451
                 14.66    0.21665424847957
                 4.459    0.83524284223889
 p    1 1.00
                 1.531                   1
 p    1 1.00
                0.5302                   1
 p    1 1.00
                 0.175                   1
 d    1 1.00
                 3.775                   1
 d    1 1.00
                   1.3                   1
 d    1 1.00
                 0.444                   1
 f    1 1.00
                 2.666                   1
 f    1 1.00
                 0.859                   1
 g    1 1.00
                 1.846                   1

[5d]
[7f]
[9g]

[MO]
 Sym= A
 Ene=    -12.54630157
 Spin= Alpha
 Occup=    2.00000
   1    -1.1585461693042e-16
   2    -1.3883963787636e-16
   3    8.4255721265509e-16
   4    -4.2845245772936e-15
   5    -9.8233562377586e-16
   6     0.039090671931344
   7    -0.023499794696861
   8    7.406241006323e-16
   9     0.035036501131018
  10    -0.021062584570595
  11    4.376085485654e-16
  12    0.0032163730704557
  13    -0.0019335586494185
  14    -4.4011415398962e-15
  15    -0.00069648495334308
  16    0.00041869972053108
  17    -8.0508035310042e-16
  18    9.3579055827405e-17
  19    9.6128232824622e-15
  20    9.2949046373265e-15
  21    1.2176366285548e-16
  22    -2.0660049558098e-16
  23    -1.2099273657763e-15
  24    6.7984041145263e-15
  25    1.3451956645637e-14
  26    -2.5507115569239e-16
  27    -3.6925230177528e-16
  28    -7.6993877052096e-16
  29    1.9815322228235e-15
  30    5.4499134405005e-15
  31    3.1059792272111e-16
  32    2.2791597638082e-16
  33    1.6285453428692e-16
  34     0.010889512398956
  35    -0.0065463521879038
  36    1.3736584002547e-16
  37    7.5181679619552e-17
  38    1.1255712825903e-16
  39    6.2708487278032e-18
  40    -1.4478150118872e-15
  41    0.0056305043206008
  42    -0.0033848406547335
  43    -4.7761361647866e-16
  44    -3.1078926396804e-16
  45    -1.4792039765325e-16
  46    -4.0188546600101e-17
  47    -1.9781359446863e-16
  48    1.6210941563273e-15
  49    3.4435086014805e-15
  50    -1.8762843278943e-17
  51    1.286645925653e-16
  52    -1.1377283947835e-16
  53    -1.5404834721454e-20
  54    -8.7087374262678e-17
  55    1.0102255119862e-16
  56     6.96710621676e-17
  57    -1.6648443577551e-16
  58    -1.1281051803156e-15
  59    3.9986035057488e-15
  60    2.927209155843e-15
  61      0.34343643133203
  62     -0.20646065234902
  63    8.2724802217835e-18
  64      0.30461217377607
  65     -0.18312101563407
  66    1.5517528204003e-16
  67     0.010568573587478
  68    -0.0063534162313676
  69    -2.26148854075e-15
  70    0.00085745425049753
  71    -0.00051546821410715
  72    -4.1567028921515e-16
  73    4.336060717839e-18
  74    -0.020629326093457
  75     0.012401550139153
  76    9.9036933124055e-18
  77    1.5761287334196e-16
  78    3.4746715000437e-16
  79    -0.042748497196059
  80     0.025698737270845
  81    -1.7081772650223e-16
  82    -1.8136708964745e-19
  83    -4.0699497194335e-17
  84    0.00052457472949575
  85    -0.00031535396649108
  86    1.2289807899199e-16
  87    -4.4093006257405e-17
  88    -1.3689639449465e-16
  89     0.008095416772423
  90    -0.0048666503474582
  91    7.1860872167714e-17
  92    -1.9330458858071e-18
  93    2.1107856522899e-16
  94    1.2541997053229e-16
  95    -2.7794211654953e-17
  96    0.0067190537962632
  97    -0.0040392343484461
  98    1.1666315940466e-17
  99    4.1981246913772e-17
 100    -1.5622262799019e-16
 101    -6.0685833473177e-17
 102    1.0521035838131e-17
 103    -0.0034108672138516
 104    0.0020504809793071
 105    -1.0883030867057e-16
 106    -2.3427331281549e-18
 107    1.5213275444347e-17
 108    5.8268153911661e-18
 109    3.095862075826e-17
 110    1.6892890243266e-18
 111    -4.0479967157841e-17
 112    2.3921467381948e-16
 113    6.2725137957493e-16
 114    -1.2081042340095e-15
 115    2.5644708222071e-16
 116      0.34343643133146
 117     -0.20646065234965
 118    -4.1785747747804e-17
 119      0.30461217377557
 120     -0.18312101563463
 121    3.013124296969e-16
 122     0.010568573587455
 123    -0.0063534162313854
 124    -1.8693569455238e-16
 125    0.00085745425049847
 126    -0.00051546821410322
 127    5.6390399043261e-16
 128    -6.4403775583057e-17
 129     0.020629326093423
 130     -0.01240155013919
 131    -4.2369418951426e-17
 132    1.564544120611e-17
 133    4.339777444682e-17
 134     0.042748497195987
 135    -0.025698737270922
 136    -5.6245126597081e-17
 137    7.8431794977709e-17
 138    4.5067648073919e-16
 139    -0.00052457472949817
 140    0.00031535396649459
 141    7.4515839450456e-17
 142    6.4490705730587e-18
 143    1.3783798636412e-17
 144    0.0080954167724103
 145    -0.0048666503474724
 146    7.8710946426941e-17
 147    -9.0441193952242e-19
 148    2.1417441152609e-16
 149    1.2695674255055e-16
 150    8.4010778782007e-17
 151     0.006719053796249
 152    -0.0040392343484585
 153    1.6734666382556e-17
 154    8.3331542488992e-18
 155    -1.4501871903438e-16
 156    -6.8489692591319e-17
 157    -4.7838816205907e-17
 158    0.0034108672138448
 159    -0.0020504809793137
 160    1.565900280871e-17
 161    4.3096305175594e-18
 162    -7.578941816391e-18
 163    -5.8680643289945e-18
 164    -2.6490180227524e-17
 165    -4.7523791033789e-19
 Sym= A
 Ene=    -12.54630157
 Spin= Alpha
 Occup=    2.00000
   1    3.876605458652e-16
   2    3.098439215949e-16
   3    4.0151520737185e-16
   4    -1.7141062987803e-15
   5    -8.8128063392025e-16
   6     0.023499794696861
   7      0.03909067193134
   8    8.7595411011686e-16
   9     0.021062584570595
  10     0.035036501131017
  11    -1.3874903080695e-15
  12    0.0019335586494131
  13    0.0032163730704667
  14    3.1022879486758e-15
  15    -0.00041869972053099
  16    -0.00069648495334421
  17    1.0010732872364e-16
  18    -7.5195496349223e-17
  19    1.2459870774711e-15
  20    3.0727047761725e-15
  21    3.2404286832171e-16
  22    -1.0817553463572e-16
  23    -3.1260730359453e-16
  24    -1.581349277335e-15
  25    -2.4561711332081e-15
  26      5.1642582118e-16
  27    2.3935013513657e-16
  28    -9.1655738548546e-16
  29    -1.7821128971574e-15
  30    -2.5286216725482e-15
  31    1.0714762648386e-16
  32    -2.0023962356007e-16
  33    -1.933814696507e-16
  34     0.006546352187904
  35     0.010889512398955
  36    -1.6276629563039e-17
  37    1.2428415781017e-16
  38    -1.2860200569678e-17
  39    -3.8636559667477e-17
  40    8.0290893908738e-16
  41    0.0033848406547302
  42    0.0056305043206082
  43    -5.1436402486505e-17
  44    -6.6621551526559e-18
  45    2.8644157414166e-17
  46    -3.8212540330613e-17
  47    -1.9456492831043e-16
  48    -7.1728428167979e-16
  49    -7.3358886928998e-16
  50    5.1100230970228e-16
  51    7.6626872844883e-18
  52    7.294786367027e-19
  53    -1.3332881590004e-18
  54    -3.1106113148848e-18
  55    3.882702418466e-19
  56    -2.1789213560725e-16
  57    2.818849649597e-17
  58    6.2305842275985e-16
  59    -3.668156272791e-16
  60    1.2831533751352e-16
  61      0.20646065234936
  62      0.34343643133182
  63    2.0611201245869e-15
  64      0.18312101563437
  65      0.30461217377589
  66    1.6209377975655e-15
  67    0.0063534162313827
  68     0.010568573587465
  69    1.0248646291075e-16
  70    0.00051546821410662
  71    0.00085745425049843
  72    -7.0343068443395e-17
  73    -8.8279584076496e-17
  74    -0.012401550139173
  75    -0.020629326093444
  76    -4.4778266423202e-17
  77    1.5677429919823e-18
  78    -1.9644183352183e-16
  79    -0.025698737270888
  80    -0.042748497196032
  81    -4.3405558302741e-17
  82    1.5512093513879e-17
  83    3.8263774052974e-16
  84    0.00031535396648951
  85    0.0005245747294986
  86    -1.6655634666726e-16
  87    -4.5781282734214e-18
  88     2.32431472268e-16
  89     0.004866650347466
  90    0.0080954167724184
  91    -2.4076672725595e-16
  92    -3.5237245449433e-18
  93    1.2776090538766e-16
  94    -2.1019983420791e-16
  95    -4.6262318253051e-16
  96    0.0040392343484543
  97    0.0067190537962578
  98    3.9602344765255e-16
  99    -1.1768485193298e-17
 100    -8.9697380770701e-17
 101    1.1252731021448e-16
 102    9.2548525190082e-17
 103    -0.002050480979311
 104    -0.0034108672138492
 105    -3.0852392110476e-16
 106    1.0930373563671e-18
 107    6.8171642424231e-18
 108    -1.1031456973376e-17
 109    4.4744933737358e-17
 110    1.3606568516449e-21
 111    1.7901967864647e-17
 112    -8.2684773127985e-16
 113    -1.8035324627483e-15
 114     2.18180286147e-15
 115    1.1836857806209e-15
 116      0.20646065234931
 117      0.34343643133167
 118    2.0452982564799e-15
 119      0.18312101563433
 120      0.30461217377576
 121    2.2795146407411e-15
 122    0.0063534162313766
 123     0.010568573587453
 124    4.1362458554371e-16
 125    0.00051546821410544
 126    0.00085745425049584
 127    3.6890645032013e-16
 128    1.603523685534e-16
 129      0.01240155013917
 130     0.020629326093436
 131    1.061216921633e-16
 132    5.634383632394e-19
 133    2.6183912175314e-16
 134      0.02569873727088
 135     0.042748497196012
 136    -1.9073270151014e-16
 137    1.2046797571429e-17
 138    -3.4491455519043e-16
 139    -0.00031535396649238
 140    -0.00052457472950406
 141    -1.6760208368303e-16
 142    -3.8537436104273e-18
 143    3.5588633860555e-16
 144    0.0048666503474647
 145    0.0080954167724151
 146    3.6846424702154e-16
 147    6.6276561412552e-19
 148    1.2796518334441e-16
 149    -2.1085963607445e-16
 150    -4.0654649878926e-16
 151    0.0040392343484513
 152    0.0067190537962516
 153    -5.2533798773861e-16
 154    9.9031739858229e-18
 155    -8.9858730357386e-17
 156    1.1213790858496e-16
 157    -5.7231506760403e-18
 158    0.0020504809793099
 159     0.003410867213847
 160    -3.9084871010539e-16
 161    3.8017205133641e-18
 162    -6.6479151327979e-18
 163    1.1598785516587e-17
 164    3.9053237082984e-18
 165    3.631649243956e-22
 Sym= A
 Ene=    -12.54135195
 Spin= Alpha
 Occup=    2.00000
   1    2.7254393284665e-17
   2    3.6765568443443e-17
   3    -7.7025217457092e-17
   4    5.450149470877e-16
   5    6.2031934914404e-16
   6    1.8466663159985e-14
   7    -1.0306028550078e-14
   8    6.0873178220262e-16
   9    1.7474621149418e-14
  10    -9.3736215974431e-15
  11    -1.0122634817825e-15
  12    5.9953769810661e-15
  13    -4.4086711145152e-15
  14    -9.688541315322e-15
  15    -4.3520344574716e-16
  16    2.5322954594738e-16
  17    2.0489894661355e-16
  18    -6.1445264699903e-17
  19    -0.012910678149391
  20    0.0035563012500083
  21    2.600914942702e-16
  22    -9.1678427321126e-18
  23    1.7796298377739e-16
  24    -0.011915169543147
  25    0.0032820841670805
  26    -1.4130712766636e-16
  27    1.5616418378376e-16
  28    4.0218002218281e-16
  29    -0.0052151166709202
  30    0.0014365260849311
  31    -5.7906783773481e-17
  32    -1.4545055859877e-16
  33    -5.7692761402994e-17
  34    5.5086303034447e-15
  35    -2.9211117826883e-15
  36    -4.8308110882466e-17
  37    -9.422943675723e-17
  38    1.0087103825923e-18
  39    6.9896126736338e-17
  40    -2.0703153736894e-15
  41    5.6202984520894e-15
  42    -3.6492160805672e-15
  43    6.3800780651137e-17
  44    2.2343499777419e-17
  45    -5.2911184740879e-17
  46    -5.3034968012688e-17
  47    1.5482041579202e-16
  48    -0.0031026345516895
  49    0.00085463389349729
  50    9.920660419162e-17
  51    1.266930929723e-16
  52    1.9524293621574e-17
  53    -1.1172537087201e-16
  54    1.2909000505413e-17
  55    9.1516327497767e-17
  56    5.2672906838581e-17
  57    -1.2825379105563e-16
  58    -1.1691302155155e-15
  59    4.5717645124245e-15
  60    2.869983316375e-15
  61     -0.38887440914228
  62      0.10711711122576
  63    -2.8031043514182e-16
  64     -0.34393291050024
  65      0.09473778413322
  66    -3.1297474877029e-17
  67    -0.014161546001298
  68    0.0039008581240809
  69    -2.7284125479421e-15
  70    0.0017411545638031
  71    -0.00047960843575086
  72    -1.2482830729014e-15
  73    2.8884187568584e-17
  74     0.022776293741979
  75    -0.0062738270575621
  76    1.4411711570153e-16
  77    1.3685734870016e-18
  78    -1.0935341722062e-16
  79     0.048819633578876
  80    -0.013447575868012
  81    1.3772519857575e-16
  82    1.2948555610164e-17
  83    7.887304533298e-16
  84    -3.949784973264e-05
  85    1.0879850829959e-05
  86    -2.8219322653245e-16
  87    -1.9602883167549e-17
  88    1.8595825570596e-17
  89    -0.0088240324562795
  90    0.0024306172992043
  91     7.09742293446e-18
  92    -2.6977714152487e-18
  93    -2.4450120277034e-16
  94    -6.5617932547014e-17
  95    1.1011246101197e-16
  96    -0.0090183939530621
  97    0.0024841550007841
  98    2.523870891719e-16
  99    -2.4747804710827e-17
 100    1.7879374601625e-16
 101    3.1689459644193e-17
 102    -2.5247111030815e-17
 103    0.0044497736484559
 104    -0.0012257090917409
 105    -1.7373940753996e-17
 106    -1.5065495416616e-18
 107    -1.8111177439602e-17
 108    -2.6090389346733e-18
 109    1.2559432386465e-16
 110    -9.5980979536194e-18
 111    -3.600596036851e-16
 112    -1.3996106270047e-16
 113    1.0189301704988e-15
 114    -4.8598391524556e-15
 115    -3.9967347747578e-15
 116      0.38887440914261
 117     -0.10711711122595
 118    -3.1141371086005e-16
 119      0.34393291050053
 120    -0.094737784133383
 121    -1.0117966160186e-16
 122     0.014161546001302
 123    -0.0039008581240818
 124    -2.958481311645e-15
 125    -0.0017411545638032
 126    0.00047960843575122
 127    -1.4040688790111e-15
 128    -1.3466098803122e-17
 129        0.022776293742
 130    -0.006273827057573
 131    2.1947046515626e-16
 132    1.7177594620902e-17
 133    6.7930046609994e-17
 134     0.048819633578915
 135    -0.013447575868035
 136    -3.0201165793318e-16
 137    3.8869690870176e-17
 138    -8.6218539830114e-16
 139    -3.9497849736937e-05
 140    1.0879850833123e-05
 141    5.1829573695795e-17
 142    -1.6442719075682e-17
 143    -7.7759334416347e-18
 144    0.0088240324562876
 145    -0.0024306172992084
 146    -4.0384177083167e-17
 147    9.8516334926179e-18
 148    2.3893781297873e-16
 149    6.4753674521666e-17
 150    1.3414668597413e-17
 151    0.0090183939530669
 152    -0.002484155000787
 153    -9.704390054543e-17
 154    3.9650430051616e-17
 155    -1.7940688128072e-16
 156    -2.83616499658e-17
 157    4.1558272840879e-17
 158    0.0044497736484587
 159    -0.0012257090917427
 160    1.024725143802e-16
 161    -1.9691115061506e-18
 162    -2.0637105577325e-17
 163    -5.9822823915268e-19
 164    3.0903585872264e-16
 165    1.1262395620215e-17
 Sym= A
 Ene=    -12.54135195
 Spin= Alpha
 Occup=    2.00000
   1    -1.2938819483296e-16
   2    -1.9507169292581e-16
   3    -5.926770026114e-16
   4    -7.2811740670632e-16
   5    -1.0553929053886e-15
   6    -4.0726903449999e-14
   7    1.4132097312158e-14
   8    4.4337092013273e-16
   9    -3.7141221903087e-14
  10    1.1861452841141e-14
  11    -7.3982294782488e-16
  12    -4.6702786629933e-15
  13    -8.7667420341902e-15
  14    -1.0765865567606e-14
  15    8.4775533112727e-16
  16    -8.6657531106292e-17
  17    -4.4905865055388e-16
  18    -3.5593789340676e-16
  19    0.0035563012500083
  20      0.01291067814939
  21    -3.4509688403947e-16
  22    -1.6462501124932e-18
  23    3.5430863711269e-16
  24    0.0032820841670776
  25     0.011915169543154
  26    1.8487087525419e-16
  27    -7.1423526469135e-17
  28    -4.5976435949551e-16
  29    0.0014365260849299
  30    0.0052151166709244
  31    -4.1719510809303e-17
  32    1.2997981771829e-16
  33    3.9225740603697e-16
  34    -1.140259130688e-14
  35    3.8072218500678e-15
  36    1.4574664571234e-16
  37    9.4952365438771e-17
  38    4.6722879944925e-17
  39    -2.9707183575662e-16
  40    -2.8735093327387e-15
  41    -6.8542520954397e-15
  42    -4.2602451059389e-15
  43    -1.5127572963999e-16
  44    8.8971554686731e-17
  45    -8.9172967489574e-19
  46    -6.7885011782082e-17
  47    2.2308853118565e-16
  48    0.00085463389349653
  49     0.003102634551692
  50    1.9416995953169e-16
  51    -1.7792792824371e-18
  52    1.5976975374522e-17
  53    -4.1056806610098e-17
  54    -8.8724437496973e-18
  55    -4.1630450925426e-17
  56    2.7767332156532e-16
  57    -6.8799025730541e-17
  58    -8.7246050487645e-16
  59    3.4530415488272e-15
  60    6.4268876153618e-15
  61       0.1071171112255
  62      0.38887440914257
  63    -3.063859447059e-16
  64     0.094737784132982
  65       0.3439329105005
  66    1.7849945443437e-16
  67    0.0039008581240731
  68     0.014161546001306
  69    -3.3512630355225e-15
  70    -0.00047960843575156
  71    -0.0017411545638031
  72    -2.0576451692634e-15
  73    1.4963426002117e-16
  74    -0.0062738270575458
  75    -0.022776293741997
  76    -3.462198132055e-17
  77    9.6975472709686e-19
  78    2.6631779725789e-16
  79    -0.013447575867979
  80     -0.04881963357891
  81    3.5360471920928e-17
  82    2.155039863173e-17
  83    1.0136265583296e-15
  84    1.0879850829274e-05
  85    3.949784973434e-05
  86    -8.8361322186718e-17
  87    -4.841628435838e-18
  88    -2.0961897597446e-16
  89    0.0024306172991978
  90    0.0088240324562865
  91    4.6008367593301e-17
  92    -2.9257878534509e-18
  93    6.6844083263698e-17
  94    -2.3975110680549e-16
  95    -1.692519967031e-16
  96    0.0024841550007794
  97    0.0090183939530661
  98    3.8357122192637e-17
  99    -1.2318943643823e-17
 100    -4.912474116863e-17
 101    1.3078072312886e-16
 102    7.9234948304433e-17
 103    -0.0012257090917385
 104    -0.0044497736484582
 105    -1.2939852753891e-16
 106    6.0829537964287e-18
 107    4.6774547091489e-18
 108    -1.5403976162655e-17
 109    2.1512757629194e-16
 110    -6.9080385661476e-20
 111    -6.5935270904297e-16
 112    -2.8596130742739e-16
 113    1.0473445328858e-15
 114    -4.1787141515379e-15
 115    -3.8542306370196e-15
 116     -0.10711711122621
 117     -0.38887440914232
 118    -2.2149300143025e-16
 119     -0.09473778413362
 120     -0.34393291050028
 121    -6.6872324731446e-16
 122    -0.0039008581240934
 123    -0.014161546001285
 124    -2.1790356669606e-15
 125    0.00047960843574986
 126    0.0017411545638062
 127    -1.5208104272916e-15
 128    -1.0680653247238e-16
 129    -0.0062738270575893
 130    -0.022776293741982
 131    -2.8591055699116e-17
 132    3.4176070959341e-18
 133    -3.7400259419087e-16
 134    -0.013447575868069
 135    -0.048819633578878
 136    -1.1694077823876e-18
 137    -6.0549445345308e-18
 138    -3.292851840423e-16
 139    1.0879850831311e-05
 140    3.9497849742277e-05
 141    -7.4165692757237e-17
 142    4.1990830627844e-18
 143    4.5060321986728e-17
 144    -0.0024306172992148
 145    -0.0088240324562809
 146    1.3169565455328e-17
 147    -2.6194336381029e-18
 148    -6.6804797239687e-17
 149    2.4038984779821e-16
 150    4.3339252518246e-18
 151    -0.0024841550007931
 152    -0.0090183939530586
 153    -1.3839838266733e-16
 154    -9.5603326275473e-18
 155    4.907859121594e-17
 156    -1.3307295900594e-16
 157    1.2976431136931e-17
 158    -0.0012257090917455
 159    -0.0044497736484555
 160    -1.763830076373e-16
 161    -6.4664440252737e-18
 162    5.5367633322883e-18
 163    -1.8781255124292e-17
 164    -2.0624990834451e-17
 165    -1.8434633476725e-20
 Sym= A
 Ene=    -11.99946988
 Spin= Alpha
 Occup=    2.00000
   1     0.012644004048078
   2     0.032999848988842
   3     0.038699642853975
   4      0.17850303589738
   5     0.015153570733268
   6    -1.5550038060394e-15
   7    -7.5441650665866e-16
   8    -1.7765876289999e-14
   9    -1.3783520564954e-15
  10    -2.852133293576e-16
  11    3.6507948333938e-14
  12    7.1209584668065e-16
  13    -4.9651588594864e-16
  14    8.8129531300959e-14
  15    -5.3715003323875e-16
  16    2.9832417328393e-16
  17    6.4378101379372e-15
  18    0.0077264581608629
  19    1.1676343975932e-18
  20    -6.8069961418806e-19
  21    -8.2766637118413e-17
  22    -7.2980343898279e-19
  23     0.044536135080861
  24    -6.5120005067799e-18
  25    8.2327458150591e-18
  26    1.3338033942807e-16
  27    -1.6647870540132e-18
  28     0.041033093583644
  29    -1.6052293740538e-17
  30    7.3053772772127e-18
  31    -8.4081271323065e-17
  32    2.5286500857047e-19
  33    4.9321336662883e-15
  34    -1.1791301387027e-16
  35    -5.0609369837704e-17
  36    2.3328778224241e-18
  37    -5.7506174128269e-23
  38    1.9870950128834e-31
  39    -4.9410734329449e-29
  40    4.9956534968864e-15
  41    -4.7801082681169e-17
  42    -2.0061917039994e-17
  43    -1.1789056827624e-17
  44    1.7362564935788e-22
  45    3.9199580208218e-32
  46    -1.9723892075474e-30
  47    -0.017717799012304
  48    -4.351452876219e-18
  49    2.9976367582374e-18
  50    5.3087775291914e-17
  51    -2.6384103528949e-19
  52    -3.2012267975743e-33
  53    -5.05053727774e-33
  54    -4.5258070938631e-18
  55    9.8308128387345e-35
  56     -0.10886327499731
  57      0.17959352250199
  58      0.65011435269726
  59    -0.096007359112351
  60     -0.03094399317905
  61    2.038682250215e-16
  62    2.6803535240275e-16
  63       0.3028983657343
  64    1.4482231953586e-16
  65    2.1949348822283e-16
  66      0.19675144243385
  67    5.4433702005647e-17
  68    -2.4077619378242e-17
  69     0.075132209527668
  70    2.6246361386226e-17
  71    1.3708085498186e-18
  72    0.0079956026571201
  73    -0.014063630142238
  74     1.56670216509e-18
  75    -9.0115400373851e-18
  76    -3.3438189138698e-18
  77    -3.2214564405153e-20
  78    -0.031943140519999
  79    1.1603669127563e-17
  80    -3.3451256146713e-18
  81    -4.8130932879611e-17
  82    -9.3696143537941e-20
  83    -0.022724997124525
  84    -2.354901778934e-17
  85    9.8483751802766e-18
  86    5.7175774553858e-17
  87    -2.6521426256378e-22
  88    0.0038864500216097
  89    -9.9987939403665e-18
  90    -2.6649102270647e-19
  91    -7.9171988630126e-18
  92    3.3236581665914e-20
  93    1.2511875535516e-31
  94    -2.2562711136694e-31
  95     0.011705280898803
  96    4.5267697346555e-18
  97    -2.8454313255119e-18
  98    2.6378271086417e-17
  99    -2.6393533472725e-20
 100    -1.0250582812813e-31
 101    3.4114256089884e-32
 102    -0.0025168174435125
 103    4.9791809521817e-18
 104    1.1439406714966e-18
 105    -5.276339679798e-17
 106    -1.9780160591115e-20
 107    1.7735908065273e-33
 108    1.0995559051723e-31
 109    -7.9021622101419e-17
 110    -1.4820284524077e-35
 111     -0.10886327499733
 112      0.17959352250193
 113      0.65011435269714
 114    -0.096007359112254
 115    -0.030943993178932
 116    2.2609492641439e-16
 117    3.1695247604086e-16
 118     -0.30289836573427
 119    1.680324298817e-16
 120    2.5718863560818e-16
 121     -0.19675144243385
 122    3.5407967992511e-17
 123    -9.836020433592e-18
 124    -0.075132209527567
 125    1.1362943099409e-17
 126    9.1675180714074e-18
 127    -0.0079956026570784
 128     -0.01406363014224
 129    2.4400005819766e-18
 130    1.0923516338671e-17
 131    -1.4309433089643e-17
 132    -3.2611217565555e-20
 133    -0.031943140519983
 134    -1.7864781518169e-17
 135    1.2456504261308e-17
 136    -2.4384512833352e-17
 137    -9.3953146615123e-20
 138    -0.022724997124487
 139    1.6575466933874e-17
 140    -2.1162369999838e-18
 141    3.5009925583207e-17
 142    -1.3984291519597e-23
 143    -0.0038864500216091
 144    -9.6912443562763e-18
 145    1.6874005505901e-20
 146    8.9973915410537e-18
 147    -3.3204427213348e-20
 148    1.6974202288622e-31
 149    -2.3868227167261e-31
 150    -0.011705280898787
 151    4.147043626745e-18
 152    3.6155762232424e-18
 153    -3.4601302072087e-17
 154    2.673401849889e-20
 155    -1.3839265723835e-31
 156    1.9683175497948e-32
 157    -0.0025168174435082
 158    -3.9100339617179e-18
 159    6.1748082319123e-20
 160    -5.364384731009e-17
 161    -1.9798628279236e-20
 162    6.0512674258516e-33
 163    -1.3541203238152e-31
 164    -6.6883060134856e-17
 165    -1.8222029658481e-35
 Sym= A
 Ene=    -11.99861873
 Spin= Alpha
 Occup=    2.00000
   1    -7.8413670994702e-15
   2    -8.5620906938352e-15
   3     5.80442362632e-15
   4    -1.0618114939873e-13
   5    -2.1075115475049e-14
   6    -1.4839446041177e-15
   7    -2.295728408139e-15
   8    0.0015578721225411
   9    -1.0730644381482e-15
  10    -6.8455626950962e-16
  11    -0.095029092395552
  12    -5.6184043121839e-16
  13    -6.2961137116575e-16
  14     -0.24217888969979
  15    1.1153640225759e-16
  16    3.7018301234273e-16
  17     0.027719249308991
  18    8.5481784606399e-16
  19    -1.1453296433447e-16
  20    -4.7068129504582e-16
  21    6.5874112042372e-16
  22    -1.6636586958882e-16
  23    -2.5813216219973e-14
  24    -9.6433394033366e-16
  25     1.28143722535e-15
  26    2.7467127907334e-16
  27    3.2565113048054e-16
  28    -1.5343857671539e-14
  29    -8.2583108680775e-17
  30    -1.2579062633226e-16
  31    -1.3451254111065e-17
  32    -1.7122936505353e-16
  33    -0.0075302692670404
  34    -2.3852163206418e-16
  35    1.3550119976985e-16
  36    -4.2511197007776e-16
  37    -3.8046465338762e-17
  38    3.1860398327927e-17
  39    4.514861210428e-17
  40    -0.047179631919087
  41    -1.411388274001e-16
  42    1.1949578585421e-16
  43    3.1884925083123e-17
  44    9.1438747294786e-18