[Molden Format]
made by pyscf v[2.14.0]
[Atoms] (AU)
O   1   8     0.00000000000000     0.00000000000000     2.19699559290000
C   2   6     0.00000000000000     2.06358092850000     0.65894749980000
C   3   6     0.00000000000000    -2.06358092850000     0.65894749980000
C   4   6     0.00000000000000     1.35474465900000    -1.83227845080000
C   5   6     0.00000000000000    -1.35474465900000    -1.83227845080000
H   6   1     0.00000000000000     3.86883629570000     1.59473987690000
H   7   1     0.00000000000000    -3.86883629570000     1.59473987690000
H   8   1     0.00000000000000     2.55283102230000    -3.45630908260000
H   9   1     0.00000000000000    -2.55283102230000    -3.45630908260000
[GTO]
1 0
 s    9 1.00
                 61420  9.0738926792129e-05
                  9199  0.00070373078778785
                  2091  0.0036940825307373
                 590.9   0.015342944310251
                 192.3    0.05285340843582
                 69.32    0.14711905484927
                 26.97    0.30776425905235
                  11.1    0.40177986931198
                 4.682    0.21876147039285
 s    9 1.00
                 61420  -5.6106385876036e-05
                  9199  -0.00044604576771449
                  2091  -0.0023256096945617
                 590.9  -0.0098410600826567
                 192.3  -0.034101461335455
                 69.32   -0.10172368291255
                 26.97    -0.2328190588312
                  11.1   -0.42666101139432
                 4.682   -0.32354027947345
 s    1 1.00
                 1.428                   1
 s    1 1.00
                0.5547                   1
 s    1 1.00
                0.2067                   1
 p    3 1.00
                 63.42   0.031327502519451
                 14.66    0.21665424847957
                 4.459    0.83524284223889
 p    1 1.00
                 1.531                   1
 p    1 1.00
                0.5302                   1
 p    1 1.00
                 0.175                   1
 d    1 1.00
                 3.775                   1
 d    1 1.00
                   1.3                   1
 d    1 1.00
                 0.444                   1
 f    1 1.00
                 2.666                   1
 f    1 1.00
                 0.859                   1
 g    1 1.00
                 1.846                   1

2 0
 s    9 1.00
                 33980  9.1634545701884e-05
                  5089  0.00070890901290249
                  1157   0.003718751398649
                 326.6   0.015467105736054
                 106.1   0.053298075488517
                 38.11    0.14806833520486
                 14.75     0.3077621740375
                 6.035    0.40212964454196
                  2.53    0.21856450306747
 s    9 1.00
                 33980  -5.5710360210471e-05
                  5089  -0.00044275075746216
                  1157  -0.0023017175139589
                 326.6  -0.0097463809126108
                 106.1  -0.033754614039102
                 38.11   -0.10016136340998
                 14.75   -0.22628082255382
                 6.035   -0.41487505248738
                  2.53   -0.34604636850945
 s    1 1.00
                0.7355                   1
 s    1 1.00
                0.2905                   1
 s    1 1.00
                0.1111                   1
 p    3 1.00
                 34.51   0.031687855209339
                 7.915     0.2128943072562
                 2.368    0.83958675201643
 p    1 1.00
                0.8132                   1
 p    1 1.00
                 0.289                   1
 p    1 1.00
                0.1007                   1
 d    1 1.00
                 1.848                   1
 d    1 1.00
                 0.649                   1
 d    1 1.00
                 0.228                   1
 f    1 1.00
                 1.419                   1
 f    1 1.00
                 0.485                   1
 g    1 1.00
                 1.011                   1

3 0
 s    9 1.00
                 33980  9.1634545701884e-05
                  5089  0.00070890901290249
                  1157   0.003718751398649
                 326.6   0.015467105736054
                 106.1   0.053298075488517
                 38.11    0.14806833520486
                 14.75     0.3077621740375
                 6.035    0.40212964454196
                  2.53    0.21856450306747
 s    9 1.00
                 33980  -5.5710360210471e-05
                  5089  -0.00044275075746216
                  1157  -0.0023017175139589
                 326.6  -0.0097463809126108
                 106.1  -0.033754614039102
                 38.11   -0.10016136340998
                 14.75   -0.22628082255382
                 6.035   -0.41487505248738
                  2.53   -0.34604636850945
 s    1 1.00
                0.7355                   1
 s    1 1.00
                0.2905                   1
 s    1 1.00
                0.1111                   1
 p    3 1.00
                 34.51   0.031687855209339
                 7.915     0.2128943072562
                 2.368    0.83958675201643
 p    1 1.00
                0.8132                   1
 p    1 1.00
                 0.289                   1
 p    1 1.00
                0.1007                   1
 d    1 1.00
                 1.848                   1
 d    1 1.00
                 0.649                   1
 d    1 1.00
                 0.228                   1
 f    1 1.00
                 1.419                   1
 f    1 1.00
                 0.485                   1
 g    1 1.00
                 1.011                   1

4 0
 s    9 1.00
                 33980  9.1634545701884e-05
                  5089  0.00070890901290249
                  1157   0.003718751398649
                 326.6   0.015467105736054
                 106.1   0.053298075488517
                 38.11    0.14806833520486
                 14.75     0.3077621740375
                 6.035    0.40212964454196
                  2.53    0.21856450306747
 s    9 1.00
                 33980  -5.5710360210471e-05
                  5089  -0.00044275075746216
                  1157  -0.0023017175139589
                 326.6  -0.0097463809126108
                 106.1  -0.033754614039102
                 38.11   -0.10016136340998
                 14.75   -0.22628082255382
                 6.035   -0.41487505248738
                  2.53   -0.34604636850945
 s    1 1.00
                0.7355                   1
 s    1 1.00
                0.2905                   1
 s    1 1.00
                0.1111                   1
 p    3 1.00
                 34.51   0.031687855209339
                 7.915     0.2128943072562
                 2.368    0.83958675201643
 p    1 1.00
                0.8132                   1
 p    1 1.00
                 0.289                   1
 p    1 1.00
                0.1007                   1
 d    1 1.00
                 1.848                   1
 d    1 1.00
                 0.649                   1
 d    1 1.00
                 0.228                   1
 f    1 1.00
                 1.419                   1
 f    1 1.00
                 0.485                   1
 g    1 1.00
                 1.011                   1

5 0
 s    9 1.00
                 33980  9.1634545701884e-05
                  5089  0.00070890901290249
                  1157   0.003718751398649
                 326.6   0.015467105736054
                 106.1   0.053298075488517
                 38.11    0.14806833520486
                 14.75     0.3077621740375
                 6.035    0.40212964454196
                  2.53    0.21856450306747
 s    9 1.00
                 33980  -5.5710360210471e-05
                  5089  -0.00044275075746216
                  1157  -0.0023017175139589
                 326.6  -0.0097463809126108
                 106.1  -0.033754614039102
                 38.11   -0.10016136340998
                 14.75   -0.22628082255382
                 6.035   -0.41487505248738
                  2.53   -0.34604636850945
 s    1 1.00
                0.7355                   1
 s    1 1.00
                0.2905                   1
 s    1 1.00
                0.1111                   1
 p    3 1.00
                 34.51   0.031687855209339
                 7.915     0.2128943072562
                 2.368    0.83958675201643
 p    1 1.00
                0.8132                   1
 p    1 1.00
                 0.289                   1
 p    1 1.00
                0.1007                   1
 d    1 1.00
                 1.848                   1
 d    1 1.00
                 0.649                   1
 d    1 1.00
                 0.228                   1
 f    1 1.00
                 1.419                   1
 f    1 1.00
                 0.485                   1
 g    1 1.00
                 1.011                   1

6 0
 s    3 1.00
                 82.64   0.022950757792906
                 12.41    0.17554011805411
                 2.824    0.86470355096212
 s    1 1.00
                0.7977                   1
 s    1 1.00
                0.2581                   1
 s    1 1.00
               0.08989                   1
 p    1 1.00
                 2.292                   1
 p    1 1.00
                 0.838                   1
 p    1 1.00
                 0.292                   1
 d    1 1.00
                 2.062                   1
 d    1 1.00
                 0.662                   1
 f    1 1.00
                 1.397                   1

7 0
 s    3 1.00
                 82.64   0.022950757792906
                 12.41    0.17554011805411
                 2.824    0.86470355096212
 s    1 1.00
                0.7977                   1
 s    1 1.00
                0.2581                   1
 s    1 1.00
               0.08989                   1
 p    1 1.00
                 2.292                   1
 p    1 1.00
                 0.838                   1
 p    1 1.00
                 0.292                   1
 d    1 1.00
                 2.062                   1
 d    1 1.00
                 0.662                   1
 f    1 1.00
                 1.397                   1

8 0
 s    3 1.00
                 82.64   0.022950757792906
                 12.41    0.17554011805411
                 2.824    0.86470355096212
 s    1 1.00
                0.7977                   1
 s    1 1.00
                0.2581                   1
 s    1 1.00
               0.08989                   1
 p    1 1.00
                 2.292                   1
 p    1 1.00
                 0.838                   1
 p    1 1.00
                 0.292                   1
 d    1 1.00
                 2.062                   1
 d    1 1.00
                 0.662                   1
 f    1 1.00
                 1.397                   1

9 0
 s    3 1.00
                 82.64   0.022950757792906
                 12.41    0.17554011805411
                 2.824    0.86470355096212
 s    1 1.00
                0.7977                   1
 s    1 1.00
                0.2581                   1
 s    1 1.00
               0.08989                   1
 p    1 1.00
                 2.292                   1
 p    1 1.00
                 0.838                   1
 p    1 1.00
                 0.292                   1
 d    1 1.00
                 2.062                   1
 d    1 1.00
                 0.662                   1
 f    1 1.00
                 1.397                   1

[5d]
[7f]
[9g]

[MO]
 Sym= A
 Ene=    -14.38761585
 Spin= Alpha
 Occup=    2.00000
   1    -1.9359396716035e-15
   2    -4.6329872476449e-16
   3    -4.9903960902839e-15
   4    2.731106122287e-14
   5    1.418442960791e-13
   6    3.0309639279986e-16
   7      -0.1340092944887
   8    -3.0005756462806e-15
   9    4.0243874457911e-16
  10    -0.098084802191504
  11    6.1660247208172e-15
  12    -4.595710060346e-17
  13     0.073087695546849
  14    -4.5774342425762e-14
  15    -1.6953689753811e-15
  16     0.023105219717086
  17    -1.3913199342501e-14
  18    -3.7648890990398e-16
  19    -4.1101214384788e-17
  20    -0.0047832873774031
  21    4.7745264125161e-16
  22    -1.391113140966e-16
  23    6.933885997196e-16
  24    -5.7229411681903e-16
  25    -0.047752432892529
  26    -9.2956853047504e-16
  27    6.3673453975277e-16
  28    -1.1548738240789e-15
  29    8.7130992435778e-16
  30    -0.056356911487312
  31    -1.4546634657385e-14
  32    -7.2965316844042e-16
  33    -1.4526868725738e-16
  34    5.4080445519474e-17
  35    0.0068440968687496
  36    1.0267597279208e-16
  37    9.8314442804699e-17
  38    2.5543357047568e-18
  39    -0.00086523949612308
  40    3.0350432679305e-15
  41    2.6418076377037e-16
  42     0.028181010997671
  43    1.5627051077996e-15
  44    -1.3683017325763e-16
  45    -1.0581363225035e-16
  46    -0.0091636326377873
  47    7.8364309318582e-17
  48    1.0731813583661e-16
  49    -0.0038146985677186
  50    3.7633659720524e-16
  51    2.1464265110139e-18
  52    9.9441451094353e-17
  53    0.0053604968020234
  54    -7.1954916874427e-17
  55    -2.1632054621147e-18
  56    -0.028745945692102
  57     0.037599586132559
  58      0.17552364339192
  59    -0.089747057461018
  60     -0.22516285692014
  61    1.3575990428947e-16
  62     -0.13031633780974
  63      0.21825327320151
  64    1.0317914888647e-16
  65     -0.13561797472303
  66      0.19512584253519
  67    7.0255141652144e-16
  68    0.0074272946552437
  69    0.0022822835358471
  70    6.9135454595281e-16
  71     0.063640247093864
  72     0.038642575311438
  73    -0.026758001173433
  74    -1.9041117881582e-16
  75    -0.043389366684847
  76    -0.026365629006158
  77    -5.5882686387152e-16
  78    -0.049110871807454
  79    2.2407027831654e-16
  80    -0.063842404191322
  81    -0.048161336102848
  82    1.0300306225495e-15
  83     0.015768070890198
  84    -1.2798774932693e-16
  85    -0.058170020624434
  86      0.03932062343497
  87    -2.4271563527893e-15
  88    -0.0022287771521763
  89    7.2494248791827e-18
  90    0.0081502000633899
  91    -0.020047790463409
  92    -2.5584398052713e-17
  93    -4.3725503989095e-17
  94     0.011023388405337
  95    0.0004883976538677
  96    2.4955728573646e-17
  97     0.012623558245536
  98    -0.014855352383108
  99    -4.5964232167525e-17
 100    -1.18460997517e-16
 101     0.018013743009533
 102    -0.0047878511740195
 103    -3.2897299482685e-17
 104    0.0013939363236418
 105    -0.0011063983248302
 106    -2.7303712049866e-17
 107    -5.0630208412229e-17
 108    0.0096835255131882
 109    0.0063733444511723
 110    6.5086087953615e-17
 111     0.028745945692139
 112    -0.037599586132521
 113     -0.17552364339171
 114     0.089747057459775
 115      0.22516285691911
 116     1.16287066921e-16
 117     -0.13031633780975
 118     -0.21825327320151
 119    5.8306757156906e-17
 120     -0.13561797472302
 121     -0.19512584253518
 122    -1.5472099390136e-17
 123    0.0074272946555458
 124    -0.002282283535789
 125    -1.1472825260095e-17
 126     0.063640247093851
 127    -0.038642575311292
 128     0.026758001173437
 129    -3.3452167670245e-18
 130    -0.043389366684855
 131     0.026365629006149
 132    2.0291084953186e-17
 133     0.049110871807413
 134    -4.1068394524448e-18
 135    -0.063842404191218
 136      0.04816133610295
 137    4.2087073415849e-17
 138    -0.015768070890251
 139    -3.0854774185658e-17
 140    -0.058170020624269
 141    -0.039320623434788
 142    -4.5273428138852e-17
 143    0.0022287771521869
 144    1.0039872492506e-17
 145     0.008150200063385
 146     0.020047790463417
 147    -2.0036960226335e-18
 148    -5.7583377017674e-18
 149     0.011023388405334
 150    -0.00048839765382376
 151    3.9244392829524e-17
 152     0.012623558245513
 153     0.014855352383152
 154    -3.0584437165048e-17
 155    -4.1834390587953e-17
 156     0.018013743009509
 157    0.0047878511740219
 158    1.2652763461196e-17
 159    0.0013939363236388
 160    0.0011063983248351
 161    3.4887087694962e-18
 162    2.3757109722247e-17
 163    0.0096835255131794
 164    -0.006373344451183
 165    -1.9364431733194e-17
 166     0.070461975080666
 167    -0.081435072456384
 168     -0.36165328625754
 169      0.15050476073996
 170      0.39002586631638
 171    3.3105321086556e-16
 172     0.027539539115344
 173     -0.15112630328281
 174    2.5565622641105e-16
 175     0.037877229665416
 176     -0.15807972916559
 177    8.2540006656926e-17
 178    -0.025281215855263
 179     -0.01857877565169
 180    4.158631566828e-19
 181    -0.095033093561691
 182      0.11543591351011
 183    -0.029271047803227
 184    3.6827382373369e-17
 185     0.012059082277761
 186    0.0057263402072006
 187    -5.5232288829926e-17
 188    -0.068628305935937
 189    1.6615140707767e-16
 190     0.048913959269739
 191    0.0072751858612213
 192    -1.2030528997581e-16
 193     0.039555917961047
 194    -2.3075660585666e-17
 195     -0.12887249960791
 196    -0.036213680486792
 197    -3.002548203703e-17
 198    -0.013991549437309
 199    1.2368759553506e-17
 200    -0.0015235686121667
 201    0.0027673717967769
 202    -1.0569405625469e-17
 203    -1.6127976118255e-17
 204    -0.0010693065885014
 205    -0.007449300916626
 206    4.945432399316e-17
 207     0.019858709664641
 208     0.018284093732214
 209    -5.5504291048503e-17
 210    -1.181676893094e-17
 211    -0.0025937148544484
 212    -0.011772132544991
 213    -3.2854488682975e-18
 214    -0.00099629730720022
 215    0.0023881800133617
 216    -1.7416462188266e-17
 217    -1.3667322849963e-17
 218    -0.0039228193692997
 219    -0.0025465085094076
 220    1.2091421541109e-17
 221    -0.070461975080696
 222     0.081435072456352
 223      0.36165328625744
 224     -0.15050476073977
 225     -0.39002586631582
 226    1.7039450562464e-16
 227     0.027539539115356
 228      0.15112630328281
 229    1.3271907491918e-16
 230     0.037877229665406
 231       0.1580797291656
 232    9.8757390657082e-17
 233    -0.025281215855253
 234     0.018578775652261
 235    -3.4763350400846e-18
 236     -0.09503309356166
 237      -0.1154359135098
 238     0.029271047803218
 239    2.0513248465584e-17
 240     0.012059082277768
 241    -0.0057263402071993
 242    1.8029569603601e-17
 243     0.068628305935992
 244    7.0212126895539e-17
 245     0.048913959269688
 246    -0.0072751858612189
 247    8.2167529625205e-17
 248     -0.03955591796096
 249    3.4252142208365e-17
 250     -0.12887249960799
 251     0.036213680486737
 252    4.6798657742166e-17
 253     0.013991549437309
 254    -8.37556687236e-20
 255    -0.0015235686121641
 256    -0.0027673717967798
 257    5.4558304681114e-18
 258    -9.8883680943778e-18
 259    -0.0010693065885011
 260     0.007449300916691
 261    4.5606431690455e-17
 262     0.019858709664622
 263    -0.018284093732217
 264    7.2752074953112e-17
 265    -5.3994862642578e-17
 266    -0.0025937148544586
 267        0.011772132545
 268    4.4770758496917e-18
 269    -0.00099629730720861
 270    -0.0023881800133587
 271    1.8142886105621e-17
 272    -1.8531885865338e-17
 273    -0.0039228193693009
 274    0.0025465085094118
 275    -1.3016981478399e-17
 276    0.0012471520392268
 277    0.00078205823240942
 278     0.091100774434201
 279     -0.01694672041761
 280    2.6294703692464e-18
 281    -0.0012432085714124
 282    -0.00053959633851814
 283    -1.7805241633703e-17
 284    0.0045067890038819
 285     0.001122950640828
 286    8.0591151923711e-17
 287    -0.019361467080236
 288    -0.010474657833639
 289    0.00045199646493595
 290    -1.0661745230176e-18
 291    -0.00031905310406386
 292    0.00094868159494426
 293    -1.9698077385639e-18
 294    0.0006659808745034
 295    -6.4381915043343e-18
 296    -0.0032290642072523
 297    0.0019810648699219
 298    -1.0014183064464e-17
 299    -0.0006879549522731
 300    1.7843041803195e-18
 301    -0.00049629621743273
 302    -0.0014050273895464
 303    1.6353335920406e-18
 304    -7.7231968285473e-18
 305    -0.0010649573991848
 306     -0.00124715203924
 307    -0.00078205823229536
 308    -0.091100774433296
 309     0.016946720417685
 310    8.4553088341076e-18
 311    -0.0012432085714203
 312    0.00053959633852253
 313    -2.4642490361767e-17
 314    0.0045067890039899
 315    -0.0011229506408863
 316    -6.3598044139947e-18
 317    -0.019361467079941
 318     0.010474657833478
 319    -0.00045199646493776
 320    -1.8554455627773e-19
 321    -0.0003190531040661
 322    -0.00094868159494716
 323    6.5080456416717e-18
 324    -0.00066598087451079
 325    -5.9443380902745e-18
 326    -0.0032290642072974
 327    -0.0019810648699643
 328    -1.6684795081369e-17
 329    0.00068795495227445
 330    2.9492429272015e-18
 331    -0.00049629621743277
 332     0.001405027389549
 333    -3.8313632935016e-18
 334    -3.1452628569668e-18
 335    -0.0010649573991882
 336    -0.0022323772485083
 337    -0.0042505941889054
 338      -0.1479619885119
 339     0.044015564239993
 340    -3.6579366390749e-19
 341    0.0027258070895957
 342    -0.0028858185243166
 343    3.8279934130509e-18
 344    -0.015881488032985
 345     0.013640853540372
 346    -9.8270223383567e-18
 347    0.0095304753442574
 348    -0.024333695057094
 349    0.00064179228051479
 350    6.2360938304147e-18
 351    -0.0015308748883299
 352    -0.001232174679323
 353    -1.3775550672972e-18
 354    0.0045827673552934
 355    5.3819944037181e-18
 356    -0.012436336180365
 357    -0.008593826141566
 358    1.9222782543538e-18
 359    0.0010454976983586
 360    5.693236561408e-18
 361    -0.0024256393054114
 362    -0.0035311535897329
 363    -3.2107029034441e-18
 364    -1.385713530689e-20
 365    0.0023126028976774
 366    0.0022323772485047
 367    0.0042505941889286
 368      0.14796198851216
 369    -0.044015564239871
 370    6.631867070273e-18
 371    0.0027258070895904
 372    0.0028858185243153
 373    -1.5320676027532e-17
 374    -0.015881488032953
 375    -0.013640853540357
 376    -8.958278377631e-18
 377    0.0095304753443541
 378     0.024333695057173
 379    -0.00064179228051228
 380    5.7763563683873e-18
 381    -0.0015308748883314
 382    0.0012321746793241
 383    2.9791112172168e-18
 384    -0.0045827673552985
 385    -6.3895780920663e-18
 386    -0.012436336180338
 387    0.0085938261415494
 388    -2.3940553878173e-18
 389    -0.0010454976983586
 390    4.7625991953021e-18
 391    -0.0024256393054085
 392    0.0035311535897304
 393    3.6946144407858e-18
 394    -1.0117741121019e-18
 395    0.0023126028976771
 Sym= A
 Ene=    -14.16326104
 Spin= Alpha
 Occup=    2.00000
   1      0.02262770481567
   2     -0.05405914536993
   3     -0.23340046984804
   4     0.063000605703287
   5     0.077461791341499
   6    1.6554674508791e-16
   7    -1.2105369858542e-15
   8      0.04297366073893
   9    2.7959292459291e-16
  10    7.8416777966438e-15
  11     0.051190018392476
  12    3.0226246568731e-16
  13    -6.6557659329887e-14
  14    -0.061206240875521
  15    -1.3376489837408e-16
  16    -1.6154939373058e-13
  17    -0.023521067149054
  18    -0.0037417079006436
  19    2.863531951673e-16
  20    -4.2289138879596e-16
  21    -0.0048977493156083
  22    3.0545843707803e-17
  23    0.0027899444920303
  24    -1.0192118104922e-16
  25    1.4344748452535e-15
  26    -0.025306898183823
  27    -3.4502393558128e-16
  28     0.007493671535176
  29    1.5287680305044e-17
  30    4.9623124606449e-14
  31    -0.030057146211017
  32    6.5762372114227e-17
  33    0.0018469403108345
  34    -7.6048288877406e-18
  35    7.6175819244878e-16
  36    0.0032296393449324
  37    6.2253610657543e-17
  38    1.4037435685171e-18
  39    -2.6346405674408e-16
  40    0.0033322749673575
  41    2.170874399869e-19
  42    -5.1302166168702e-15
  43     0.025127548529266
  44    4.6765211608195e-17
  45    -3.833474306489e-17
  46    4.0309350782235e-15
  47    -0.0028175149159083
  48    7.1070967834222e-18
  49    -2.5606336759192e-16
  50    -0.0063452388644205
  51    -1.0815122040155e-17
  52    5.0679545045435e-18
  53    -7.6872405585883e-16
  54    0.0028467420494695
  55    7.2888063566753e-18
  56     0.014743384258221
  57    -0.012225489459692
  58    -0.055772962424422
  59    -0.014238641492071
  60    -0.00070005507860429
  61    -6.7705545056992e-16
  62    -0.045994946165028
  63      0.29354763559633
  64    -5.5049672184989e-16
  65    -0.032393494462671
  66      0.24612860607389
  67    -1.3517828000097e-16
  68     0.040084408070289
  69     0.021976286122043
  70    1.3720080092273e-17
  71    -0.00070931519818461
  72    0.0046423262682282
  73    -0.019950750419729
  74    1.0916350500023e-17
  75    -0.051886688518958
  76    -0.0091910960114346
  77    1.105563026792e-16
  78    -0.041640676079421
  79    -2.4847721264654e-17
  80    -0.069081522348073
  81    -0.013664868983985
  82    2.5606171175206e-16
  83    -0.0012723685173999
  84    -1.5848769988332e-17
  85     0.014276534795578
  86    -0.0019512792794701
  87    5.1273385631873e-17
  88    0.0048091239527219
  89    -1.6305622508236e-17
  90    0.0082661688395408
  91    -0.016427591093707
  92    8.6306734819522e-18
  93    5.4072221320113e-17
  94    0.0044986824799996
  95    -0.0050398553514059
  96    -3.6966377767531e-18
  97     0.021232877472038
  98    -0.022966036166169
  99    3.9152136952586e-17
 100    8.962567952016e-17
 101    0.0053700740424316
 102    -0.0069926733533578
 103    4.2635069576287e-18
 104    -0.0075147285490405
 105    0.00047671020828093
 106    1.1199234047105e-17
 107    7.6532842522706e-18
 108    0.0060587762201106
 109    0.0035522415386336
 110    -4.0578842916748e-17
 111     0.014743384258246
 112    -0.012225489459657
 113    -0.055772962424179
 114     -0.01423864149316
 115    -0.00070005508319927
 116    1.509689115604e-16
 117     0.045994946165027
 118      0.29354763559632
 119    1.626313384564e-16
 120     0.032393494462735
 121      0.24612860607387
 122    -8.3536509913259e-17
 123    -0.040084408070906
 124     0.021976286122801
 125    1.9085737530391e-17
 126    0.00070931519653481
 127    0.0046423262693566
 128    -0.019950750419716
 129    2.6278961112588e-18
 130     0.051886688518953
 131    -0.0091910960114366
 132    2.1578894511098e-17
 133    -0.041640676079529
 134    8.3217016598603e-19
 135     0.069081522348111
 136    -0.013664868983959
 137    1.1962462366543e-17
 138    -0.0012723685174983
 139    -3.9286692664787e-17
 140    -0.014276534795292
 141    -0.0019512792791326
 142    -3.4115662377743e-17
 143    0.0048091239527311
 144    7.213983555963e-18
 145    -0.0082661688395433
 146    -0.016427591093701
 147    6.0298206662447e-18
 148    -7.8690364010501e-18
 149    -0.0044986824800045
 150    -0.0050398553513803
 151    -5.0924212246505e-19
 152    -0.021232877472119
 153     -0.02296603616621
 154    -2.16149757084e-17
 155    1.8811196758091e-17
 156    -0.0053700740423887
 157    -0.0069926733533596
 158    -1.0873630989301e-18
 159    0.0075147285490459
 160    0.00047671020828569
 161    3.4948173037466e-18
 162    -4.5194835268831e-18
 163    -0.0060587762201103
 164    0.0035522415386294
 165    6.3137174335869e-18
 166    -0.020065956701903
 167       0.0296776215887
 168      0.10856454919843
 169     0.015146164651859
 170    0.0059074543169782
 171    -4.5832501755423e-17
 172       -0.176234674193
 173    -0.058803369689515
 174    -4.3372137095571e-17
 175     -0.15115969517569
 176     -0.04296244777422
 177    -4.7732157354282e-18
 178    -0.046498768350313
 179     0.020307621444112
 180    -1.4885764077475e-17
 181     0.005397382622199
 182    -0.0079825253985764
 183    -0.028810819701794
 184    -1.3224203949279e-17
 185     -0.02145188493066
 186    -0.022273755331354
 187    3.3574291331067e-18
 188    -0.029921671463164
 189    -1.9424089184461e-17
 190    -0.054178393438377
 191    -0.043834467197286
 192    9.8102321888288e-18
 193    -0.010534250829099
 194    9.501941281588e-18
 195    0.0035161108478315
 196    -0.0081450203598813
 197    1.0877152628097e-17
 198    -0.014465994350561
 199    -8.4638121373817e-18
 200    0.00073458054335454
 201    -0.0042180670254415
 202    -1.6963188097667e-18
 203    1.9771763801236e-18
 204     0.011248780289606
 205     -0.01056346485645
 206    -4.5906534639302e-19
 207    -0.0068919917171487
 208    -0.012429333793911
 209    1.0649645411639e-17
 210    2.7276637328036e-18
 211      0.01638613924497
 212    -0.0048162389183991
 213    -3.4546434854003e-18
 214    -0.0031890234768467
 215    0.0014792815254443
 216    1.5677013362799e-18
 217    4.7835457718109e-18
 218    0.0057247654030221
 219    0.0073078246793279
 220    -2.3220728240285e-18
 221    -0.020065956701929
 222     0.029677621588654
 223        0.108564549198
 224     0.015146164653881
 225    0.0059074543243652
 226    -7.2516915514334e-18
 227        0.176234674193
 228     -0.05880336968952
 229    -1.0608787899384e-17
 230      0.15115969517564
 231    -0.042962447774275
 232    -5.7105850863629e-18
 233     0.046498768350614
 234     0.020307621444753
 235    2.3371594598602e-18
 236    -0.0053973826205843
 237    -0.007982525396456
 238    -0.028810819701804
 239    -8.4950703368011e-20
 240     0.021451884930652
 241    -0.022273755331341
 242    -1.4124009776068e-18
 243    -0.029921671463046
 244    -3.9651954752327e-18
 245     0.054178393438446
 246    -0.043834467197393
 247    -4.8836471752401e-18
 248    -0.010534250828586
 249    1.0826332315511e-17
 250    -0.0035161108473236
 251    -0.0081450203602597
 252    2.8216679930367e-17
 253    -0.014465994350556
 254    -3.0953132936305e-20
 255    -0.0007345805433709
 256    -0.0042180670254327
 257    -1.7098402621587e-18
 258    2.4033930173006e-18
 259    -0.011248780289607
 260    -0.010563464856424
 261    -1.6874967666942e-18
 262    0.0068919917170807
 263    -0.012429333793948
 264    5.7346179560829e-19
 265    -4.3585521065996e-18
 266    -0.016386139245016
 267    -0.0048162389183926
 268    1.1539482684179e-18