[Molden Format]
made by pyscf v[2.14.0]
[Atoms] (AU)
O   1   8     0.00000000000000     0.00000000000000     2.19699559290000
C   2   6     0.00000000000000     2.06358092850000     0.65894749980000
C   3   6     0.00000000000000    -2.06358092850000     0.65894749980000
C   4   6     0.00000000000000     1.35474465900000    -1.83227845080000
C   5   6     0.00000000000000    -1.35474465900000    -1.83227845080000
H   6   1     0.00000000000000     3.86883629570000     1.59473987690000
H   7   1     0.00000000000000    -3.86883629570000     1.59473987690000
H   8   1     0.00000000000000     2.55283102230000    -3.45630908260000
H   9   1     0.00000000000000    -2.55283102230000    -3.45630908260000
[GTO]
1 0
 s    9 1.00
                 61420  9.0738926792129e-05
                  9199  0.00070373078778785
                  2091  0.0036940825307373
                 590.9   0.015342944310251
                 192.3    0.05285340843582
                 69.32    0.14711905484927
                 26.97    0.30776425905235
                  11.1    0.40177986931198
                 4.682    0.21876147039285
 s    9 1.00
                 61420  -5.6106385876036e-05
                  9199  -0.00044604576771449
                  2091  -0.0023256096945617
                 590.9  -0.0098410600826567
                 192.3  -0.034101461335455
                 69.32   -0.10172368291255
                 26.97    -0.2328190588312
                  11.1   -0.42666101139432
                 4.682   -0.32354027947345
 s    1 1.00
                 1.428                   1
 s    1 1.00
                0.5547                   1
 s    1 1.00
                0.2067                   1
 p    3 1.00
                 63.42   0.031327502519451
                 14.66    0.21665424847957
                 4.459    0.83524284223889
 p    1 1.00
                 1.531                   1
 p    1 1.00
                0.5302                   1
 p    1 1.00
                 0.175                   1
 d    1 1.00
                 3.775                   1
 d    1 1.00
                   1.3                   1
 d    1 1.00
                 0.444                   1
 f    1 1.00
                 2.666                   1
 f    1 1.00
                 0.859                   1
 g    1 1.00
                 1.846                   1

2 0
 s    9 1.00
                 33980  9.1634545701884e-05
                  5089  0.00070890901290249
                  1157   0.003718751398649
                 326.6   0.015467105736054
                 106.1   0.053298075488517
                 38.11    0.14806833520486
                 14.75     0.3077621740375
                 6.035    0.40212964454196
                  2.53    0.21856450306747
 s    9 1.00
                 33980  -5.5710360210471e-05
                  5089  -0.00044275075746216
                  1157  -0.0023017175139589
                 326.6  -0.0097463809126108
                 106.1  -0.033754614039102
                 38.11   -0.10016136340998
                 14.75   -0.22628082255382
                 6.035   -0.41487505248738
                  2.53   -0.34604636850945
 s    1 1.00
                0.7355                   1
 s    1 1.00
                0.2905                   1
 s    1 1.00
                0.1111                   1
 p    3 1.00
                 34.51   0.031687855209339
                 7.915     0.2128943072562
                 2.368    0.83958675201643
 p    1 1.00
                0.8132                   1
 p    1 1.00
                 0.289                   1
 p    1 1.00
                0.1007                   1
 d    1 1.00
                 1.848                   1
 d    1 1.00
                 0.649                   1
 d    1 1.00
                 0.228                   1
 f    1 1.00
                 1.419                   1
 f    1 1.00
                 0.485                   1
 g    1 1.00
                 1.011                   1

3 0
 s    9 1.00
                 33980  9.1634545701884e-05
                  5089  0.00070890901290249
                  1157   0.003718751398649
                 326.6   0.015467105736054
                 106.1   0.053298075488517
                 38.11    0.14806833520486
                 14.75     0.3077621740375
                 6.035    0.40212964454196
                  2.53    0.21856450306747
 s    9 1.00
                 33980  -5.5710360210471e-05
                  5089  -0.00044275075746216
                  1157  -0.0023017175139589
                 326.6  -0.0097463809126108
                 106.1  -0.033754614039102
                 38.11   -0.10016136340998
                 14.75   -0.22628082255382
                 6.035   -0.41487505248738
                  2.53   -0.34604636850945
 s    1 1.00
                0.7355                   1
 s    1 1.00
                0.2905                   1
 s    1 1.00
                0.1111                   1
 p    3 1.00
                 34.51   0.031687855209339
                 7.915     0.2128943072562
                 2.368    0.83958675201643
 p    1 1.00
                0.8132                   1
 p    1 1.00
                 0.289                   1
 p    1 1.00
                0.1007                   1
 d    1 1.00
                 1.848                   1
 d    1 1.00
                 0.649                   1
 d    1 1.00
                 0.228                   1
 f    1 1.00
                 1.419                   1
 f    1 1.00
                 0.485                   1
 g    1 1.00
                 1.011                   1

4 0
 s    9 1.00
                 33980  9.1634545701884e-05
                  5089  0.00070890901290249
                  1157   0.003718751398649
                 326.6   0.015467105736054
                 106.1   0.053298075488517
                 38.11    0.14806833520486
                 14.75     0.3077621740375
                 6.035    0.40212964454196
                  2.53    0.21856450306747
 s    9 1.00
                 33980  -5.5710360210471e-05
                  5089  -0.00044275075746216
                  1157  -0.0023017175139589
                 326.6  -0.0097463809126108
                 106.1  -0.033754614039102
                 38.11   -0.10016136340998
                 14.75   -0.22628082255382
                 6.035   -0.41487505248738
                  2.53   -0.34604636850945
 s    1 1.00
                0.7355                   1
 s    1 1.00
                0.2905                   1
 s    1 1.00
                0.1111                   1
 p    3 1.00
                 34.51   0.031687855209339
                 7.915     0.2128943072562
                 2.368    0.83958675201643
 p    1 1.00
                0.8132                   1
 p    1 1.00
                 0.289                   1
 p    1 1.00
                0.1007                   1
 d    1 1.00
                 1.848                   1
 d    1 1.00
                 0.649                   1
 d    1 1.00
                 0.228                   1
 f    1 1.00
                 1.419                   1
 f    1 1.00
                 0.485                   1
 g    1 1.00
                 1.011                   1

5 0
 s    9 1.00
                 33980  9.1634545701884e-05
                  5089  0.00070890901290249
                  1157   0.003718751398649
                 326.6   0.015467105736054
                 106.1   0.053298075488517
                 38.11    0.14806833520486
                 14.75     0.3077621740375
                 6.035    0.40212964454196
                  2.53    0.21856450306747
 s    9 1.00
                 33980  -5.5710360210471e-05
                  5089  -0.00044275075746216
                  1157  -0.0023017175139589
                 326.6  -0.0097463809126108
                 106.1  -0.033754614039102
                 38.11   -0.10016136340998
                 14.75   -0.22628082255382
                 6.035   -0.41487505248738
                  2.53   -0.34604636850945
 s    1 1.00
                0.7355                   1
 s    1 1.00
                0.2905                   1
 s    1 1.00
                0.1111                   1
 p    3 1.00
                 34.51   0.031687855209339
                 7.915     0.2128943072562
                 2.368    0.83958675201643
 p    1 1.00
                0.8132                   1
 p    1 1.00
                 0.289                   1
 p    1 1.00
                0.1007                   1
 d    1 1.00
                 1.848                   1
 d    1 1.00
                 0.649                   1
 d    1 1.00
                 0.228                   1
 f    1 1.00
                 1.419                   1
 f    1 1.00
                 0.485                   1
 g    1 1.00
                 1.011                   1

6 0
 s    3 1.00
                 82.64   0.022950757792906
                 12.41    0.17554011805411
                 2.824    0.86470355096212
 s    1 1.00
                0.7977                   1
 s    1 1.00
                0.2581                   1
 s    1 1.00
               0.08989                   1
 p    1 1.00
                 2.292                   1
 p    1 1.00
                 0.838                   1
 p    1 1.00
                 0.292                   1
 d    1 1.00
                 2.062                   1
 d    1 1.00
                 0.662                   1
 f    1 1.00
                 1.397                   1

7 0
 s    3 1.00
                 82.64   0.022950757792906
                 12.41    0.17554011805411
                 2.824    0.86470355096212
 s    1 1.00
                0.7977                   1
 s    1 1.00
                0.2581                   1
 s    1 1.00
               0.08989                   1
 p    1 1.00
                 2.292                   1
 p    1 1.00
                 0.838                   1
 p    1 1.00
                 0.292                   1
 d    1 1.00
                 2.062                   1
 d    1 1.00
                 0.662                   1
 f    1 1.00
                 1.397                   1

8 0
 s    3 1.00
                 82.64   0.022950757792906
                 12.41    0.17554011805411
                 2.824    0.86470355096212
 s    1 1.00
                0.7977                   1
 s    1 1.00
                0.2581                   1
 s    1 1.00
               0.08989                   1
 p    1 1.00
                 2.292                   1
 p    1 1.00
                 0.838                   1
 p    1 1.00
                 0.292                   1
 d    1 1.00
                 2.062                   1
 d    1 1.00
                 0.662                   1
 f    1 1.00
                 1.397                   1

9 0
 s    3 1.00
                 82.64   0.022950757792906
                 12.41    0.17554011805411
                 2.824    0.86470355096212
 s    1 1.00
                0.7977                   1
 s    1 1.00
                0.2581                   1
 s    1 1.00
               0.08989                   1
 p    1 1.00
                 2.292                   1
 p    1 1.00
                 0.838                   1
 p    1 1.00
                 0.292                   1
 d    1 1.00
                 2.062                   1
 d    1 1.00
                 0.662                   1
 f    1 1.00
                 1.397                   1

[6d]
[10f]
[15g]

[MO]
 Sym= A
 Ene=    -14.39099411
 Spin= Alpha
 Occup=    2.00000
   1    1.5865392978626e-14
   2    2.2566638957121e-14
   3    -2.0247493765264e-13
   4    4.0166554792953e-14
   5    8.209849089955e-13
   6    -1.9100741660847e-16
   7      0.13324396001949
   8    1.3718782810535e-14
   9    -6.8303508356416e-16
  10      0.17391476680501
  11    -3.7813599366001e-13
  12    2.0159852945414e-15
  13     -0.44111370324125
  14    1.4596864484562e-12
  15    -1.1236631847559e-15
  16    -0.032381681784438
  17    -1.4351936347546e-13
  18    -9.7040438804474e-15
  19    -1.4263002899538e-14
  20    -2.0792685078261e-14
  21    -3.1814913636235e-16
  22    4.2312318275897e-16
  23     0.013005045488673
  24    -4.1447160254305e-14
  25    -1.8643295913697e-14
  26    1.282786395249e-14
  27    1.0509585288568e-15
  28    -2.1410494863091e-15
  29    0.0091016286107037
  30    -2.6687672362463e-13
  31    -1.7284560434282e-13
  32    -3.5795828665641e-13
  33    -4.5051138904408e-16
  34    2.020153696291e-17
  35     0.089688710754957
  36    4.0847811021154e-16
  37      0.01284780831509
  38    -1.4102978770845e-14
  39    1.1525994970298e-16
  40      0.00647916554041
  41    -8.8270698040121e-15
  42    7.4645423065462e-17
  43    -0.0028236925415299
  44    -4.1546604112504e-15
  45    6.4758914619098e-17
  46    -9.8337917406961e-16
  47       0.1482947231851
  48    -5.8884689356198e-13
  49    -2.5281148168625e-16
  50     0.080758087573541
  51    -2.4990360124767e-13
  52    -4.993537231973e-17
  53     0.031515773457439
  54    -2.8692265077678e-13
  55    -4.1417232587578e-17
  56    -2.0683777405901e-14
  57    -3.6658324269475e-14
  58    -4.524582593551e-14
  59    -2.3908656505403e-16
  60    9.5695927573454e-16
  61    -2.6255061083931e-16
  62     0.016486343470556
  63    6.7654955262313e-16
  64     0.020146306555411
  65    -1.7416243523856e-14
  66    -2.0294804256973e-14
  67    -2.4425395924143e-14
  68    0.00045700172864035
  69    1.7220510133253e-16
  70    -2.0744511229706e-16
  71     -0.01353404302125
  72    -0.097736955837038
  73      -0.1175261170758
  74     -0.25652020831097
  75     -0.20263558938875
  76    -4.2201101554475e-16
  77      0.13665697411604
  78     -0.22898607770943
  79    -1.3773019407258e-15
  80     0.075866407182814
  81     -0.15068784601873
  82    2.6098109326118e-16
  83      0.09833076408025
  84      0.10687840667247
  85    4.9612221470095e-16
  86     0.064688881292365
  87     0.056108424798957
  88     0.024395273277393
  89    -0.051306504737507
  90     0.045399898926741
  91    -2.9112184175614e-16
  92    1.0202216303264e-17
  93     0.066530586049927
  94     0.041706403929271
  95      0.13263217582409
  96     0.058906958172248
  97    1.1011916540082e-15
  98    -7.0352137067848e-16
  99    -0.053461448010352
 100     0.027864269546564
 101     -0.10218932850922
 102    -0.0079011680546943
 103    -4.6483933917414e-16
 104    1.1572647624192e-15
 105    -0.089315986605494
 106    5.9759134418431e-16
 107      0.02788821938348
 108    -0.026081705987261
 109    -1.4161007908363e-16
 110    -0.0050513346085659
 111    0.0038220060886973
 112    -6.2395780409766e-17
 113    -0.0028073934425153
 114    -0.029435541442487
 115    1.4894768991002e-17
 116    -8.9896858330955e-17
 117    -0.026365104409558
 118    -0.014727732398193
 119    -3.2378277963227e-16
 120    -0.035093903786809
 121    0.0036327401116976
 122    -1.2080649731674e-16
 123    -0.044397490154775
 124    -0.010636139938715
 125    -6.7573271936104e-18
 126    0.0079050008625924
 127    -0.076648670981678
 128     0.027388290615659
 129    -1.455693377539e-16
 130    -9.7044567418237e-17
 131    -7.7494250141128e-17
 132     0.055661885794943
 133    -5.5845072428326e-17
 134     0.045045435518556
 135    -0.011583265553099
 136    0.0054666089822589
 137    -0.015096504109474
 138    0.0096180147753792
 139    -5.849562246258e-17
 140    -7.008052370673e-17
 141     0.013534043021253
 142     0.097736955837051
 143      0.11752611707689
 144       0.2565202083144
 145      0.20263558938561
 146    -9.3657855343109e-18
 147      0.13665697411606
 148      0.22898607770943
 149    -2.0664314721788e-17
 150     0.075866407182912
 151      0.15068784601847
 152    1.6922949635655e-16
 153     0.098330764076368
 154     -0.10687840666862
 155    -1.9102006481874e-17
 156     0.064688881291716
 157    -0.056108424797997
 158    -0.024395273277578
 159     0.051306504737451
 160    -0.045399898926806
 161    9.2417277064908e-17
 162    7.5522657899841e-17
 163     0.066530586049818
 164    -0.041706403928162
 165     -0.13263217582342
 166    -0.058906958171833
 167    -3.9697562486316e-16
 168    -3.8837695939407e-16
 169    -0.053461448009941
 170    -0.027864269546033
 171      0.10218932851409
 172    0.0079011680555608
 173    6.6866367648495e-17
 174    5.5381403541302e-17
 175    -0.089315986608206
 176    5.5076871146961e-18
 177     0.027888219383464
 178     0.026081705987283
 179    1.5161133572221e-17
 180    -0.0050513346085511
 181    -0.0038220060886906
 182    -2.1534106759185e-17
 183    -0.0028073934425249
 184     0.029435541442508
 185    -2.2413990530869e-17
 186    -8.3004984236076e-17
 187    -0.026365104409241
 188     0.014727732397788
 189    -9.0192399180978e-17
 190    -0.035093903786593
 191    -0.0036327401119341
 192    3.4379851419275e-17
 193    -0.044397490154675
 194     0.010636139938584
 195    -8.4558508645755e-17
 196    -0.0079050008630295
 197     0.076648670981591
 198    -0.027388290615813
 199    1.3394081218917e-16
 200    1.4319053903541e-16
 201    1.5935083976427e-16
 202     0.055661885794728
 203    1.2592837126055e-16
 204     0.045045435518341
 205     0.011583265552931
 206    -0.0054666089824363
 207     0.015096504109443
 208    0.0096180147753061
 209    5.9207215424391e-17
 210    3.6447913207805e-17
 211     0.024761617944255
 212      0.21735944516413
 213       0.2059162510028
 214       0.4886823977033
 215      0.38040100562505
 216    -2.0784638942721e-16
 217    -0.029064521278301
 218      0.16130660230819
 219    -8.4726857870667e-17
 220    -0.030450153370177
 221       0.1115503522468
 222    1.7682666435904e-16
 223     -0.15019536019863
 224      0.25491694458733
 225    -3.7108671968964e-17
 226    -0.050387453617805
 227     0.078799907105929
 228    -0.041564451587031
 229    -0.031111053297103
 230     0.024349612738756
 231    -4.7433216364468e-18
 232    -2.2266806655061e-17
 233    -0.024173854039788
 234     -0.16908703858082
 235     -0.17520921735975
 236     -0.18510935636417
 237    9.3249867743521e-17
 238    -1.2169846287861e-16
 239     0.040967411278069
 240    -0.078709469232639
 241    -0.068993563409651
 242     -0.02840390024779
 243    -8.8756523267511e-17
 244    -7.6733864146362e-19
 245    -0.011080359522038
 246    -3.4573096583524e-17
 247    -0.0029724707293991
 248     0.034339304915818
 249    -2.1444375475206e-17
 250    0.00060654381031891
 251    -0.003496718762693
 252    -3.8113240962469e-17
 253    -0.004211528204887
 254    0.0052048671327111
 255    1.1267695184198e-17
 256    -1.21448036317e-16
 257      0.02231368458478
 258    -0.011877184419369
 259    -8.3616429067965e-17
 260     0.018308964699527
 261    -0.032112303415089
 262    -3.8049918695854e-17
 263    -0.024402651811931
 264     0.009252670953656
 265    -3.0964084265939e-17
 266     0.014784432323571
 267     0.022305253277489
 268     0.072653512241485
 269    -3.1955813843539e-17
 270     3.32762323753e-17
 271    -1.326757829977e-17
 272    -0.025495912026426
 273    1.1989368192499e-17
 274    -0.019299369309262
 275    0.0086957679980712
 276     0.012779953990185
 277     0.016102221187313
 278    -0.0081198443443372
 279    8.4757505753785e-18
 280    -4.3148925399193e-18
 281    -0.024761617944606
 282     -0.21735944516464
 283     -0.20591625100548
 284     -0.48868239770216
 285      -0.3804010056212
 286    1.7237775744034e-19
 287    -0.029064521278328
 288      -0.1613066023082
 289    -5.1757343881602e-17
 290    -0.030450153369104
 291     -0.11155035224651
 292    -4.1940720142409e-17
 293     -0.15019536020205
 294     -0.25491694458587
 295    1.066931128903e-17
 296    -0.050387453617751
 297    -0.078799907104959
 298     0.041564451587389
 299     0.031111053297648
 300    -0.024349612738498
 301    -4.1526376915293e-17
 302    5.4995984592238e-17
 303    -0.024173854039788
 304      0.16908703857942
 305      0.17520921735725
 306      0.18510935636319
 307    1.8550049685676e-16
 308    -3.2353742068598e-16
 309     0.040967411277969
 310     0.078709469231612
 311     0.068993563407414
 312     0.028403900245107
 313    -8.6155468614521e-17
 314    -4.2978265403262e-18
 315    -0.011080359524542
 316    1.8960459938268e-17
 317    -0.0029724707293647
 318    -0.034339304915815
 319    1.0953656469786e-18
 320    0.0006065438103242
 321    0.0034967187626868
 322    6.9518762245782e-18
 323    -0.0042115282048693
 324    -0.0052048671327055
 325    1.100615181017e-18
 326    2.1361647137479e-18
 327     0.022313684586212
 328       0.0118771844198
 329    2.3786941406399e-17
 330     0.018308964700263
 331     0.032112303415226
 332    -5.8233774580147e-17
 333    -0.024402651811362
 334    -0.0092526709535273
 335    -1.6734174636647e-17
 336    -0.014784432323116
 337    -0.022305253276368
 338    -0.072653512241206
 339    -7.1127916719651e-17
 340    1.1342860367137e-16
 341    -6.5076537144396e-17
 342    -0.025495912026397
 343    1.0222796368151e-16
 344    -0.019299369309267
 345    -0.0086957679976124
 346    -0.012779953989982
 347    -0.016102221186865
 348    -0.0081198443443309
 349    3.5076214834123e-17
 350    -2.9564163356869e-17
 351    0.00066311396712836
 352    -0.017032178200373
 353      0.15344984679547
 354    -0.023839585342253
 355    -9.1481232511148e-17
 356    0.0031997288612445
 357    -0.0047626685249617
 358    3.4920625773747e-16
 359    0.00075208855872871
 360     0.023747590516404
 361    -7.1025202831393e-18
 362    -0.034540021800594
 363    -0.017536879712461
 364    0.00031596193072411
 365    -0.0009346221013138
 366     0.001037163271637
 367    8.0230473295551e-18
 368    7.6930343800493e-18
 369    -0.00015868992633498
 370    0.0017955355463069
 371    -0.002139658547219
 372    -0.0013478452508454
 373    -3.9522229376679e-17
 374    -2.0771788477627e-17
 375    -0.0011477207540733
 376    -1.3389452715065e-16
 377    0.0039899680131646
 378    -0.006974057586557
 379    -5.9226519925538e-17
 380    0.0015401956630706
 381    -0.0025053155980357
 382    -6.510017688742e-17
 383    0.0011912976023516
 384    -0.0038409117236382
 385    -1.0828066150702e-18
 386    -0.00066311396710686
 387     0.017032178200376
 388     -0.15344984680488
 389      0.02383958534203
 390    3.5360257220389e-17
 391    0.0031997288613702
 392    0.0047626685248543
 393    -1.3456377674107e-16
 394    0.00075208855812992
 395    -0.023747590515959
 396    1.1565395656487e-17
 397    -0.034540021803201
 398     0.017536879713737
 399    -0.00031596193071113
 400    0.0009346221013207
 401    -0.0010371632716336
 402    1.4950495345337e-18
 403    7.5803062757995e-18
 404    -0.00015868992634365
 405    -0.0017955355461961
 406    0.0021396585469871
 407    0.0013478452509178
 408    -3.1327783075435e-17
 409    -1.6784063020132e-17
 410    -0.0011477207538612
 411    3.923627312114e-17
 412    0.0039899680132959
 413    0.0069740575864004
 414    1.122939264651e-17
 415    0.0015401956631558
 416    0.0025053155979607
 417    3.178847019876e-17
 418    0.0011912976024215
 419    0.0038409117236003
 420    1.514556065356e-18
 421    -4.7187032219886e-05
 422     0.049915763403804
 423     0.051680545595889
 424     0.013547036787769
 425    2.1344773537521e-17
 426    0.0083556281085888
 427    -0.013804727191993
 428    -9.6617717104826e-17
 429     -0.03707358848786
 430      0.06387057473016
 431    2.3559442254759e-17
 432    -0.0083596306440336
 433     0.020826926758769
 434    0.00048022083951252
 435    -0.00013854750741743
 436    0.00072082389176976
 437    2.8950430150691e-19
 438    -4.3674039533842e-18
 439    -0.00018415222288468
 440     0.010978759642451
 441    0.0070931647348302
 442      0.01657464342184
 443    1.4017537329835e-17
 444    -1.0377017461758e-17
 445    -0.004611171081826
 446    3.7683741287396e-17
 447       0.0130403745769
 448    -0.018860465686536
 449    1.4822745933932e-17
 450    0.0039708719144938
 451    -0.0071775611324655
 452    9.4248934817324e-18
 453     0.003949934457926
 454    -0.008613656493263
 455    5.0680996995955e-18
 456    4.7187032232677e-05
 457    -0.049915763403826
 458    -0.051680545591255
 459    -0.013547036787668
 460    -2.8271941033761e-17
 461    0.0083556281084554
 462     0.013804727191778
 463    1.0317460822069e-16
 464    -0.037073588487382
 465    -0.063870574729413
 466    -4.4284123185466e-17
 467    -0.0083596306432874
 468    -0.020826926757796
 469    -0.0004802208395058
 470    0.00013854750743039
 471    -0.00072082389177634
 472    1.4246460237166e-18
 473    3.7076077983938e-18
 474    -0.00018415222289338
 475     -0.01097875964243
 476     -0.00709316473475
 477    -0.016574643421723
 478    -3.7257459409967e-19
 479    -1.1666480950476e-17
 480    -0.0046111710817062
 481    -4.2529863196355e-17
 482     0.013040374576722
 483     0.018860465686246
 484    -1.5879769684931e-17
 485    0.0039708719144053
 486    0.0071775611323318
 487    -2.4094117112673e-17
 488     0.003949934457865
 489    0.0086136564931572
 490    3.2199046984814e-20
 Sym= A
 Ene=    -14.16550481
 Spin= Alpha
 Occup=    2.00000
   1    -0.026484973612394
   2     -0.12232442048331
   3     -0.17737532112542
   4     -0.10603043148324
   5    -0.045093098713816
   6    1.6845924821987e-16
   7    3.0123186763872e-15
   8     0.045165242463781
   9    -1.4100898786365e-15
  10    -9.0640271115376e-14
  11     0.086684660852799
  12    -7.5970913330957e-16
  13    3.677647062226e-13
  14     -0.24383794657427
  15    2.1655560210374e-16
  16    -1.4412398275142e-13
  17    -0.0045953915354161
  18    -0.0031909751575371
  19     0.013939095651676
  20    0.0029276868808266
  21    -2.5738762135121e-16
  22    -4.7653929933145e-16
  23    -2.3939139810176e-16
  24     0.078602902447065
  25     0.085026582636542
  26     0.071482142794406
  27    3.5274041107473e-17
  28    -4.2421983300231e-16
  29    1.210816635579e-15
  30     0.021170919107946
  31      0.06963608302505
  32     0.076650119835828
  33    9.7024623706346e-17
  34    -2.5824064624211e-16
  35    2.6503035383096e-14
  36    5.2299573355662e-16
  37    -3.8254313623985e-15
  38    0.0074388811255588
  39    6.7518321068341e-16
  40    -3.6736417058299e-15
  41    0.0044494183724079
  42    3.6205453065734e-16
  43    -2.4997529122028e-15
  44    -0.0022445411139588
  45    -4.1211514655596e-17
  46    5.9977303507492e-16
  47    -1.6543450405155e-13
  48     0.078133021717018
  49    3.182407469968e-16
  50    -5.5207212451193e-14
  51     0.049089843781176
  52    5.7849515038015e-16
  53    -7.4711764558835e-14
  54     0.019540309773116
  55    -5.8093561729257e-17
  56    -0.025054405003763
  57    -0.0089887680838167
  58    -0.012728827271483
  59    9.7966556907641e-17
  60    -8.53053501178e-17
  61    1.0582471942782e-16
  62    -8.9402877611838e-16
  63    -1.8932350151245e-16
  64    3.731152624162e-15
  65    -0.013347680087043
  66    -0.014412344194623
  67    0.0012651750057774
  68    -2.5236382634888e-15
  69    -6.7128770110436e-17
  70    5.1328201089557e-17
  71    -0.0066948784548534
  72    -0.043617016568982
  73    -0.027601906410651
  74     -0.26827695927802
  75    -0.050628252058549
  76    1.4776839678386e-16
  77    -0.045599616172512
  78      0.30716110452031
  79    1.831851993717e-16
  80    -0.019914986581872
  81      0.17000559487753
  82    -4.7165561643719e-16
  83    -0.0021934573221686
  84      0.10387716577759
  85    -4.8274801134711e-18
  86    0.0069401181459679
  87     0.019782439821392
  88    0.0058793250011953
  89     0.028625897189775
  90    -0.024824250428468
  91    -1.0269998823227e-16
  92    3.1731451089739e-17
  93    -0.080274403450344
  94     0.041703721468953
  95     0.044307156985678
  96     0.041183339398309
  97    2.5903292115983e-16
  98    -1.0782120994632e-16
  99     0.079902014724838
 100      0.01753148239587
 101      -0.0725960492937
 102    -0.040069244221129
 103    1.3652405275086e-16
 104    -8.0634869425939e-18
 105    -0.081690096084735
 106    -8.5603200393069e-18
 107    -0.0095821188869887
 108     0.035366626345332
 109    7.560804415296e-17
 110    0.0025212524959442
 111    -0.0034827733320974
 112    9.4052749629388e-18
 113    0.0069847143648537
 114     0.029306151090453
 115    -4.1184038489443e-17
 116    1.556675632323e-16
 117    -0.0035002525337494
 118    -0.034807395697501
 119    7.0940863463217e-18
 120    0.0049026922892129
 121    -0.029364556877333
 122    6.3468887839748e-17
 123     0.021173261207236
 124    0.00088555120840292
 125    -2.4596226462047e-17
 126    -0.0046070174930591
 127      0.01527971725228
 128    -0.036718163634683
 129    -9.0541056650642e-17
 130    2.6024356347968e-17
 131    -1.9314793101474e-16
 132    -0.054225261021181
 133    4.8120342733979e-17
 134    -0.063812938374827
 135    -0.0037769070091289
 136    -0.0050674303643635
 137    -0.0010023440872017
 138    -0.016966709909513
 139    6.6870076135517e-17
 140    -6.5446030132292e-17
 141    -0.0066948784548394
 142    -0.043617016568959
 143    -0.027601906410523
 144     -0.26827695928914
 145    -0.050628252053192
 146    -3.4467932659081e-16
 147     0.045599616172512
 148      0.30716110452035
 149    -2.0082931489303e-16
 150     0.019914986583147
 151      0.17000559487652
 152    -1.7351013048742e-16
 153    0.0021934573170052
 154      0.10387716578298
 155    -4.0235293540222e-17
 156    -0.0069401181450395
 157     0.019782439820617
 158    0.0058793250011708
 159     0.028625897189583
 160    -0.024824250428313
 161    -2.4301073489767e-17
 162    4.8134213305767e-17
 163     0.080274403450377
 164     0.041703721469094
 165     0.044307156986611
 166     0.041183339397209
 167    -2.3516447131592e-16
 168    -2.2051367558999e-16
 169    -0.079902014724918
 170     0.017531482394556
 171    -0.072596049298952
 172    -0.040069244224431
 173    -1.2598807991784e-16
 174    5.6840811364798e-17