[Molden Format]
made by pyscf v[2.14.0]
[Atoms] (AU)
O   1   8     0.00000000000000     0.00000000000000     0.22166487450000
H   2   1     0.00000000000000     1.43090062180000    -0.88665949780000
H   3   1     0.00000000000000    -1.43090062180000    -0.88665949780000
[GTO]
1 0
 s    9 1.00
                 61420  9.0738926792129e-05
                  9199  0.00070373078778785
                  2091  0.0036940825307373
                 590.9   0.015342944310251
                 192.3    0.05285340843582
                 69.32    0.14711905484927
                 26.97    0.30776425905235
                  11.1    0.40177986931198
                 4.682    0.21876147039285
 s    9 1.00
                 61420  -5.6106385876036e-05
                  9199  -0.00044604576771449
                  2091  -0.0023256096945617
                 590.9  -0.0098410600826567
                 192.3  -0.034101461335455
                 69.32   -0.10172368291255
                 26.97    -0.2328190588312
                  11.1   -0.42666101139432
                 4.682   -0.32354027947345
 s    1 1.00
                 1.428                   1
 s    1 1.00
                0.5547                   1
 s    1 1.00
                0.2067                   1
 p    3 1.00
                 63.42   0.031327502519451
                 14.66    0.21665424847957
                 4.459    0.83524284223889
 p    1 1.00
                 1.531                   1
 p    1 1.00
                0.5302                   1
 p    1 1.00
                 0.175                   1
 d    1 1.00
                 3.775                   1
 d    1 1.00
                   1.3                   1
 d    1 1.00
                 0.444                   1
 f    1 1.00
                 2.666                   1
 f    1 1.00
                 0.859                   1
 g    1 1.00
                 1.846                   1

2 0
 s    3 1.00
                 82.64   0.022950757792906
                 12.41    0.17554011805411
                 2.824    0.86470355096212
 s    1 1.00
                0.7977                   1
 s    1 1.00
                0.2581                   1
 s    1 1.00
               0.08989                   1
 p    1 1.00
                 2.292                   1
 p    1 1.00
                 0.838                   1
 p    1 1.00
                 0.292                   1
 d    1 1.00
                 2.062                   1
 d    1 1.00
                 0.662                   1
 f    1 1.00
                 1.397                   1

3 0
 s    3 1.00
                 82.64   0.022950757792906
                 12.41    0.17554011805411
                 2.824    0.86470355096212
 s    1 1.00
                0.7977                   1
 s    1 1.00
                0.2581                   1
 s    1 1.00
               0.08989                   1
 p    1 1.00
                 2.292                   1
 p    1 1.00
                 0.838                   1
 p    1 1.00
                 0.292                   1
 d    1 1.00
                 2.062                   1
 d    1 1.00
                 0.662                   1
 f    1 1.00
                 1.397                   1

[5d]
[7f]
[9g]

[MO]
 Sym= A
 Ene=    -33.10096952
 Spin= Alpha
 Occup=    2.00000
   1       1.2170277392346
   2       0.2087901622632
   3    -0.046060867822454
   4     0.051633905423211
   5     0.026563808149233
   6    -6.6099158657464e-21
   7    6.2131952469569e-17
   8    -0.0030007493610747
   9    -2.9285569231712e-22
  10    -1.1478430877777e-16
  11    0.0080606209088986
  12    8.7606221240837e-23
  13    -5.5903628806734e-15
  14    -0.027485997349705
  15    -2.1097815654807e-23
  16    -2.5653307458765e-15
  17    -0.0066160610610094
  18    -0.00025885478754453
  19    2.148182768763e-24
  20    -1.8174110465761e-16
  21    0.0010699261596123
  22    -1.0546860107887e-26
  23    0.00083738383688752
  24    1.304678359207e-23
  25    1.1036070657927e-15
  26    -0.0022722576586898
  27    3.9867769078194e-26
  28    0.0015364205623004
  29    -7.0793920414499e-24
  30    1.9431851510776e-15
  31    -0.011237262259485
  32    1.5007551774169e-25
  33    -0.00052278423172725
  34    -2.0121920257086e-24
  35    -3.5132801342322e-17
  36    -0.001150552115912
  37    1.257207339882e-26
  38    4.4764841274159e-24
  39    4.4546611442159e-17
  40     0.003151602855085
  41    8.3946910538604e-25
  42    -3.9349356716583e-16
  43    0.0073750716510691
  44    -1.0885402258119e-25
  45    2.8339812654306e-24
  46    2.5110531999731e-16
  47    -0.00075680174704638
  48    -7.3223281204696e-25
  49    -2.5439573650889e-18
  50    -0.0011061023372587
  51    1.9062769120343e-26
  52    -5.3160530381565e-24
  53    -1.043155698235e-16
  54    0.00044988766496488
  55    -1.3415168800309e-26
  56    0.00058177307098843
  57    -0.017469786186356
  58    -0.017867504694074
  59    0.00023115483713459
  60    1.6475668568596e-25
  61    0.0012033552997701
  62    -0.0011798888987787
  63    2.0169144134601e-24
  64    0.0068579813014413
  65    -0.0047615602159021
  66    -3.140443000555e-24
  67    0.0045602788831851
  68    -0.0036221695058512
  69    0.00010783575384413
  70    3.7941964346153e-24
  71    0.00029952690666953
  72    0.00019262318237128
  73    -5.1564111805023e-24
  74    0.00017756236451202
  75    1.4207908543442e-24
  76    -0.00063557828200392
  77    0.00011526205381419
  78    6.9781665734384e-25
  79    -0.00065186028562178
  80    2.8178910910251e-24
  81    -0.0012733436813025
  82    -0.0019556795516416
  83    -8.3878986083299e-24
  84    -6.0852564677998e-24
  85    0.00091093393788006
  86    0.00058177307098904
  87     -0.01746978618636
  88    -0.017867504694087
  89    0.00023115483713404
  90    1.3783395173517e-25
  91    -0.0012033552997698
  92    -0.0011798888987785
  93    2.2426672719444e-24
  94    -0.0068579813014447
  95    -0.0047615602159046
  96    -3.036955774285e-24
  97    -0.0045602788831901
  98    -0.0036221695058545
  99    0.0001078357538441
 100    3.7948502901622e-24
 101    -0.00029952690666974
 102    0.00019262318237136
 103    5.1819375724019e-24
 104    0.00017756236451205
 105    1.5276582988631e-24
 106    0.00063557828200205
 107    0.00011526205381571
 108    -5.8069179089446e-25
 109    -0.00065186028562164
 110    2.8041688422334e-24
 111    0.0012733436813023
 112    -0.0019556795516413
 113    8.442048819321e-24
 114    -6.0991970388569e-24
 115    -0.00091093393787986
 Sym= A
 Ene=     -9.23887904
 Spin= Alpha
 Occup=    2.00000
   1     -0.13101108235311
   2      0.23724086943533
   3      0.81517223999188
   4    -0.087130227544549
   5     -0.12121290097698
   6    1.4965157945481e-15
   7    7.0262970673592e-15
   8     -0.40897705499018
   9    1.0630727615901e-15
  10    6.2101721493106e-15
  11       -0.412000752966
  12    1.1864975576229e-16
  13    -7.788169775572e-15
  14      0.07907009838447
  15    2.5226137942919e-18
  16    -7.1182512262787e-15
  17      0.03062246480323
  18    0.0068981521802984
  19    -1.6197944315108e-17
  20    -2.1275359402325e-16
  21    -0.0049845865721592
  22    3.4126065094823e-20
  23     0.011388092600068
  24    -3.5301288551074e-17
  25    7.3717472403973e-16
  26    -0.0024120256001633
  27    -6.6167940773866e-20
  28    -0.0076306600095366
  29    -2.567231950003e-18
  30    2.4820704726395e-15
  31     0.043811140220352
  32    -1.7270555313433e-18
  33    0.0023116242313899
  34    2.5931372549762e-18
  35    -6.682651179317e-17
  36    0.0078049079402953
  37    -1.8365852591421e-19
  38    -5.80031343119e-18
  39    2.1384251498937e-17
  40     -0.01053600423224
  41    1.6338496453403e-18
  42    -2.3203114045112e-16
  43    -0.023904334409588
  44    1.0419451985805e-18
  45    -7.0442304581952e-18
  46    -7.7932527718798e-17
  47    0.00095173211848719
  48    4.1227700697568e-19
  49    6.5021583465151e-17
  50    0.0011356742819503
  51    -1.0046506366699e-19
  52    4.2679446993042e-18
  53    2.2182022823841e-17
  54    -0.00098254919842917
  55    9.9338238625042e-20
  56    0.0048162158575122
  57     0.069656399504214
  58     0.075170538272912
  59    0.00014897276422204
  60    2.6073816018418e-18
  61    -0.0071379828305982
  62    0.0058305942607124
  63    -1.0871637206782e-18
  64    -0.027429290098698
  65     0.018322993109148
  66    -6.4701523993648e-19
  67    -0.019911029360595
  68     0.014918686122655
  69    -0.0002324927953256
  70    6.3398571833168e-19
  71    -0.0012230618688795
  72    -0.00081603574014976
  73    -5.3135867917708e-19
  74    -0.00094673364428392
  75    -1.5310510450407e-18
  76    0.0025974409272766
  77    -0.00085857805508181
  78    -1.8759216135179e-20
  79    0.0031572969336284
  80    -5.240741827463e-19
  81    0.0043932771937411
  82    0.0076927257408582
  83    1.811985588996e-18
  84    9.2725200690808e-19
  85    -0.0037818168055699
  86    0.0048162158575122
  87     0.069656399504214
  88     0.075170538272882
  89    0.00014897276421922
  90    2.4506248270396e-18
  91    0.0071379828305987
  92    0.0058305942607125
  93    -2.9787006583242e-18
  94     0.027429290098694
  95     0.018322993109146
  96    -1.9046060031784e-18
  97     0.019911029360582
  98     0.014918686122646
  99    -0.00023249279532559
 100    6.5874925494596e-19
 101    0.0012230618688796
 102    -0.00081603574015006
 103    3.6174061491605e-19
 104    -0.00094673364428369
 105    -2.6868238020039e-18
 106    -0.0025974409272801
 107    -0.00085857805507835
 108    -1.0914472614041e-18
 109    0.0031572969336287
 110    -3.0459138782741e-19
 111    -0.0043932771937412
 112    0.0076927257408585
 113    -2.0157828087062e-18
 114    6.2572194958137e-19
 115    0.0037818168055703
 Sym= A
 Ene=    -9.135366749
 Spin= Alpha
 Occup=    2.00000
   1    2.3415166059052e-15
   2    -4.8614869660937e-15
   3    -1.6556968924861e-14
   4    3.345612024575e-15
   5    7.3953307317825e-15
   6    5.2428290870292e-15
   7      0.56720359891584
   8    2.507116936797e-15
   9    4.3820003132051e-15
  10      0.51908183117861
  11    3.4488999860416e-15
  12    3.3866934277877e-16
  13     0.040352647379683
  14    -3.2566520091103e-15
  15    1.1053422771109e-16
  16    -0.0031024454870274
  17    -1.96543405751e-15
  18    7.1642989336097e-17
  19    -7.0041514800286e-17
  20    -0.0068035723254944
  21    3.271735575745e-16
  22    -3.0094438855284e-17
  23    -1.5663390879814e-16
  24    -1.0282504785222e-16
  25    -0.031472149195688
  26    4.7290618256802e-16
  27    7.4160249540854e-17
  28    1.4358787680085e-16
  29    1.2056132510991e-16
  30    0.0036261144035109
  31    -2.0971985941671e-15
  32    -6.7725305700546e-17
  33    2.8187935863575e-17
  34    1.473490721464e-17
  35    0.0012985147535917
  36    4.3897282588407e-19
  37    -8.6738084709621e-17
  38    -4.9918228039663e-17
  39    -0.0038151185179375
  40    4.4352331561612e-16
  41    1.6886494540085e-18
  42    0.00020373013746644
  43    5.0560454223153e-16
  44    3.2275548820236e-17
  45    -4.6481858463384e-17
  46    -0.0037323533389811
  47    -7.9044779902864e-17
  48    1.5849971767197e-18
  49     0.001836064739857
  50    -8.9005217467877e-17
  51    -2.7633018705082e-18
  52    2.2564796632006e-17
  53    0.0033808902102654
  54    2.9152087638633e-17
  55    1.5002636939569e-18
  56    0.0076104327422269
  57    -0.0018289483228151
  58    -0.0069587394127016
  59    0.0017757899350098
  60    6.9494601901539e-19
  61    -0.0016771429705669
  62    0.0018717364233041
  63    -6.6563635642948e-18
  64    0.0069253844933581
  65    -0.0062564807616431
  66    -4.0623961844506e-17
  67    0.0028785026777917
  68    -0.0016145956790544
  69    -0.00035622206552784
  70    5.8122464466169e-18
  71    0.0025240574902759
  72    0.0013576949639071
  73    1.2414877895634e-18
  74    -0.0010810608329633
  75    -2.9227133650839e-17
  76    0.0044889472289644
  77    0.0037766196885968
  78    1.7847210794741e-17
  79    0.00044142854325922
  80    -2.640997596887e-18
  81     0.001854972207022
  82    0.0020789662014796
  83    1.2823236717822e-17
  84    8.7848279428798e-18
  85    -0.00099434454193344
  86    -0.0076104327422274
  87    0.0018289483228122
  88    0.0069587394126915
  89    -0.0017757899350094
  90    1.2051993010054e-17
  91    -0.0016771429705674
  92    -0.001871736423304
  93    -7.4985326336793e-18
  94    0.0069253844933571
  95    0.0062564807616412
  96    -5.554072954466e-18
  97     0.002878502677789
  98    0.0016145956790529
  99    0.0003562220655279
 100    -1.1037925027906e-17
 101    0.0025240574902757
 102    -0.0013576949639068
 103    -5.1220856051768e-18
 104    0.0010810608329632
 105    -1.5059574872902e-18
 106    0.0044889472289643
 107    -0.0037766196885971
 108    -2.3140268031005e-17
 109    -0.00044142854325931
 110    -7.636610966183e-18
 111    0.0018549722070223
 112    -0.0020789662014798
 113    -2.0802681643298e-17
 114    1.9177545870302e-17
 115    -0.00099434454193345
 Sym= A
 Ene=    -9.072776153
 Spin= Alpha
 Occup=    2.00000
   1    -1.6938038224041e-16
   2    -1.505052514778e-15
   3    -3.2846393585403e-15
   4    3.3659462902365e-16
   5    2.2408158061536e-15
   6      0.57771169513362
   7    -4.9950579054965e-15
   8    3.0512789017101e-16
   9      0.50728537538952
  10    -5.2898729879495e-15
  11    1.4348584414105e-15
  12     0.026115876974367
  13    1.3522763625929e-16
  14    -1.5536614508602e-15
  15     0.001145271605061
  16    4.4106244884894e-16
  17    -4.224770587403e-16
  18    -9.0620897024541e-17
  19    -0.0070593968978518
  20    2.3748871442891e-16
  21    2.4415652511522e-16
  22    -3.1054579407384e-17
  23    -4.4398180005242e-17
  24    -0.016029420577211
  25    3.6111414772708e-16
  26    -1.7428800964543e-16
  27    1.7144911348557e-16
  28    2.938490954027e-16
  29    0.00034812932961564
  30    -8.0140535758719e-16
  31    -3.4128345798186e-16
  32    3.7939433782856e-16
  33    2.9771137110142e-17
  34    0.0012284906605658
  35    -8.2430112073874e-17
  36    3.7566724546456e-17
  37    5.8512719853185e-17
  38    -0.0027856697205854
  39    -3.2224604495689e-17
  40    1.4354389767094e-16
  41    0.00080200948290607
  42    1.6646627965296e-16
  43    3.5092422794632e-16
  44    -1.6238258958153e-16
  45    -0.0025193319250819
  46    1.7620019198701e-16
  47    -9.8731480421165e-17
  48    0.0001461305200485
  49    -1.9517713266864e-17
  50    -1.6573232652325e-16
  51    2.6572018578285e-17
  52    0.0021396418470408
  53    -3.4922787929899e-17
  54    5.6571646976584e-17
  55    -3.5361645452314e-17
  56    2.6121836848299e-17
  57    -1.502087230529e-15
  58    -2.1728307186915e-16
  59    -1.746521629187e-16
  60    0.00093611337777002
  61    1.1141550254472e-16
  62    -3.1281932015051e-16
  63    -0.00033468429592253
  64    1.2623454075661e-16
  65    5.5390503028106e-17
  66    0.00022157546977645
  67    -8.0430516260691e-17
  68    3.8726106706253e-16
  69    -3.0866022170426e-17
  70    -0.00018217452980371
  71    7.6747473388459e-17
  72    -8.8758828222783e-18
  73    0.0002546634393083
  74    2.9094264709991e-16
  75    -0.00041095690993025
  76    -6.0102006411308e-16
  77    -4.1577844142196e-16
  78    3.4068028967488e-05
  79    -1.8954810545545e-17
  80    -0.00048617645769558
  81    7.3256672497283e-18
  82    -1.4689232851112e-16
  83    0.0013756615768359
  84    0.0010399073388793
  85    2.8753471554686e-17
  86    2.0354764115862e-16
  87    -3.6940906126809e-16
  88    -9.7785723265177e-16
  89    -8.6856888909294e-17
  90    0.00093611337776991
  91    -7.2033618147503e-17
  92    -3.7435214870528e-16
  93    -0.00033468429592201
  94    -2.7589041670716e-16
  95    6.4784907731855e-17
  96    0.00022157546977669
  97    -6.9102447978085e-16
  98    -1.2552903598812e-16
  99    -2.7746739314114e-17
 100    -0.00018217452980371
 101    -2.3838763438803e-16
 102    5.6755742711786e-17
 103    -0.00025466343930826
 104    2.0390477175892e-17
 105    -0.00041095690992994
 106    -2.7818399975758e-16
 107    9.2545630936682e-17
 108    -3.406802896718e-05
 109    8.246603859019e-17
 110    -0.00048617645769555
 111    -2.3017865503488e-16
 112    2.5345129502129e-16
 113    -0.0013756615768358
 114    0.0010399073388793
 115    7.0687693015551e-17
 Sym= A
 Ene=    -8.953203915
 Spin= Alpha
 Occup=    2.00000
   1      -0.1458338104622
   2      0.26107660460294
   3      0.92961706441825
   4     -0.18376857022561
   5     -0.14573710441095
   6    5.9558756497474e-16
   7    3.6313083318316e-15
   8      0.40064797470615
   9    3.0599605077673e-16
  10    2.9717057663847e-15
  11      0.30820583671557
  12    -1.4008813874158e-17
  13    -6.2041309288777e-15
  14      0.15854341173014
  15    2.8472224572457e-18
  16    -6.5640631147363e-15
  17     0.034625228401971
  18    -0.0044234489979396
  19    -6.1188741878087e-18
  20    -4.2089335644634e-17
  21    -0.0065994559809675
  22    -2.0727326421645e-20
  23    -0.016277263831797
  24    -1.5365671521419e-17
  25    2.7766144261322e-16
  26     0.011188059330717
  27    4.7874131968008e-20
  28    -0.0035510056351605
  29      4.6351999349e-18
  30    1.3321507309763e-15
  31     0.058891338319405
  32    1.6796886745354e-18
  33    0.0028857783914497
  34    1.3665844878036e-18
  35    -8.3231788297606e-17
  36    0.0034599668804333
  37    1.8056304549981e-19
  38    -3.1757716254647e-18
  39    3.1952675781552e-17
  40    -0.017004234985451
  41    7.2670872806557e-19
  42    3.8312180115352e-16
  43    -0.038103589830533
  44    -1.0076768737205e-18
  45    -8.768199560476e-19
  46    -1.8837783775273e-16
  47    0.0044267757218003
  48    9.1034464279763e-20
  49    -2.5233613207862e-17
  50    0.0065175433710833
  51    9.4452483692225e-20
  52    2.7286963288975e-18
  53    8.9122488844033e-17
  54    -0.0021166593661513
  55    -9.2978586173774e-20
  56    -0.0036206877767168
  57     0.098273244411351
  58      0.10396598420188
  59    -0.0018886769007748
  60    2.4009389039843e-19
  61    -0.0060383664771652
  62    0.0058131462320372
  63    2.8993513951519e-20
  64    -0.045048019293501
  65     0.035537318232713
  66    1.7391762812607e-18
  67     -0.02716951168432
  68     0.023339011863583
  69    -0.00026585523581096
  70    -1.4281810680687e-18
  71    -0.0047693194291594
  72    -0.0029111588531263
  73    1.6467160036953e-18
  74    0.00059105772845534
  75    1.9148539103147e-19
  76    -0.0047317433516332
  77    -0.0045828127992071
  78    -1.9937438865586e-20
  79    0.0012767289421679
  80    -1.1640731159096e-18
  81    0.0051009551151003
  82    0.0065960181364877
  83    3.0035403000915e-18
  84    2.696625017841e-18
  85    -0.0027447755556655
  86    -0.0036206877767172
  87     0.098273244411354
  88      0.10396598420185
  89    -0.0018886769007775
  90    4.1230046107388e-19
  91    0.0060383664771657
  92    0.0058131462320374
  93    1.8472686744397e-18
  94     0.045048019293499
  95     0.035537318232711
  96    2.9646548927203e-18
  97     0.027169511684308
  98     0.023339011863575
  99    -0.00026585523581104
 100    -1.453756897545e-18
 101    0.0047693194291597
 102    -0.0029111588531268
 103    -1.4889833613163e-18
 104    0.00059105772845509
 105    1.3057362174677e-18
 106    0.0047317433516298
 107    -0.0045828127992041
 108    1.0985691224659e-18
 109     0.001276728942168
 110    -1.3856962665521e-18
 111    -0.0051009551151005
 112    0.0065960181364878
 113    -2.8213018817306e-18
 114    3.0086961754345e-18
 115    0.0027447755556657
 Sym= A
 Ene=    -5.167057038
 Spin= Alpha
 Occup=    0.00000
   1    1.8012933524457e-15
   2    2.8648869829697e-15
   3    1.3137241432225e-14
   4    -4.5406222885281e-14
   5    -7.1717414782678e-14
   6    -8.7709306547647e-16
   7      0.26812325922722
   8    -6.1601688844532e-16
   9    3.7480176422435e-16
  10      0.16136166768927
  11    -1.0258157679045e-17
  12    9.349573197484e-16
  13     -0.24322388029953
  14    2.8458900277549e-14
  15    2.1410476226568e-16
  16    -0.030008358265388
  17    1.8283306859655e-14
  18    8.0183328061306e-18
  19    -3.3317093289755e-16
  20     0.085910412219303
  21    -6.2536366271594e-16
  22    -1.629623607648e-16
  23    1.3399676599551e-16
  24    -1.2221182785249e-15
  25      0.25752260359373
  26    4.2448386624148e-15
  27    -4.2629970266898e-16
  28    -1.3623263014433e-15
  29    -2.4151912789186e-16
  30      0.14472251468671
  31    1.0848084589471e-14
  32    -1.4462044135289e-16
  33    -8.4793671209142e-17
  34    3.3757628582162e-17
  35    -0.009536163595478
  36    -2.3700166275575e-16
  37    -2.4299654662112e-17
  38    7.5788778777211e-17
  39    0.0021607237443195
  40    -1.825063579937e-15
  41    1.482773336597e-16
  42    -0.015278116598632
  43    -4.240987885766e-15
  44    -2.4094515507656e-16
  45    -3.3369750517128e-17
  46    0.0002246555999742
  47    4.0347074081052e-16
  48    -1.4085604099106e-18
  49    0.0012021271358493
  50    5.5118773785585e-16
  51    2.8006572229307e-16
  52    2.1147132580823e-17
  53    0.0017303248608138
  54    -3.4813973718216e-16
  55    3.052567318269e-17
  56    -0.076766123424135
  57     -0.31890200390504
  58    -0.072383659040155
  59     0.009446348376954
  60    2.4806650733791e-17
  61     0.019174058348777
  62    -0.014194899173935
  63    -4.6353901306517e-18
  64      0.12750763293219
  65    -0.092435454316399
  66    4.8534678063066e-17
  67     0.033743920965533
  68    -0.017093806273635
  69    -0.00062825090479755
  70    -1.4370982646514e-17
  71     0.018142350937893
  72     0.010643535125431
  73    1.6945561369233e-17
  74    -0.00093033514693176
  75    -1.8151125468938e-17
  76     0.041889882649927
  77     0.032391958514431
  78    -4.4384494541705e-17
  79    0.0044395535438837
  80    -8.9024601831453e-18
  81    0.0054866903435836
  82    0.0091320596305534
  83    -4.3122698732474e-18
  84    -3.8718977365364e-17
  85    -0.0043208164791548
  86     0.076766123424131
  87      0.31890200390507
  88     0.072383659040247
  89    -0.009446348376952
  90    3.2689729040517e-17
  91     0.019174058348775
  92     0.014194899173934
  93    3.5868136444528e-17
  94       0.1275076329322
  95     0.092435454316417
  96    -1.1999938767384e-16
  97     0.033743920965563
  98     0.017093806273656
  99    0.00062825090479784
 100    2.6880735812594e-17
 101     0.018142350937894
 102    -0.010643535125432
 103    9.6752875099267e-18
 104    0.00093033514693338
 105    2.0855923908319e-17
 106     0.041889882649938
 107    -0.032391958514438
 108    2.1178166610214e-17
 109    -0.0044395535438844
 110    -2.2530684729131e-17
 111    0.0054866903435845
 112    -0.0091320596305548
 113    3.1219237191782e-17
 114    -3.0442961066712e-17
 115    -0.0043208164791558
 Sym= A
 Ene=    -5.089191751
 Spin= Alpha
 Occup=    0.00000
   1    -0.046412345513311
   2      0.15841694047782
   3      0.79991611557741
   4     -0.34191478389986
   5     -0.27551281982904
   6    -9.518535339329e-16
   7    -5.6627318308407e-16
   8     -0.24123684109139
   9    2.5995564063428e-16
  10    -2.1364730683073e-15
  11     -0.16927708494924
  12    1.1786052078913e-15
  13    1.2853253729984e-14
  14      0.41804250993713
  15    5.3413625129344e-17
  16    7.2963988009285e-15
  17     0.068984949684214
  18    -0.015500599860804
  19    -4.5131309556638e-17
  20    8.378808738709e-17
  21      0.04861542382609
  22    -1.9112945805017e-17
  23     -0.07334820213628
  24    -1.994244661922e-16
  25    -1.3659467828803e-15
  26      0.16276347907437
  27    -1.8151640663477e-18
  28    -0.077505331840298
  29    -1.9495488797492e-16
  30    -7.2065886591704e-15
  31      0.11344566455253
  32    2.6992309078417e-18
  33    -0.00033435758353191
  34    2.2351480356105e-18
  35    -1.5746358699264e-16
  36    -0.0052258667664927
  37    -4.5347252578368e-19
  38    1.711455256668e-18
  39    8.0947400322766e-17
  40    0.0040087683500819
  41    2.7153486423859e-17
  42    9.9382616621983e-16
  43    -0.028609301295325
  44    -1.4329615352176e-19
  45    -1.3722595383462e-17
  46    -1.422045163234e-15
  47    -0.0011688396918517
  48    -2.4713900235434e-18
  49    2.2030951223096e-16
  50    0.00031573480830712
  51    1.4279732318708e-19
  52    -9.1844365690374e-18
  53    3.8677003042888e-16
  54    -0.0013778200197692
  55    -4.598767044723e-19
  56    -0.076008226434598
  57     -0.26102584213911
  58     0.030534523105445
  59     0.012969609736508
  60    1.4388590295676e-17
  61     0.015525356977055
  62    -0.008714181226671
  63    4.7666686044143e-17
  64     0.087457283506379
  65    -0.059258634630566
  66    -1.6878244195085e-17
  67    -0.0054744063007695
  68    -0.0037961373200609
  69    0.00098748100525602
  70    1.504315556444e-17
  71     0.011582611431582
  72      0.01040230286268
  73    -2.2074503459293e-17
  74    -0.0014971765475594
  75    1.6743349935371e-17
  76     0.029793533685047
  77     0.021194788240629
  78    -1.7881299693663e-17
  79     0.005286513558151
  80    7.7115748061281e-18
  81    0.0034936589909615
  82     0.010759635577037
  83    -2.5692421585834e-17
  84    -2.2966138147036e-17
  85    -0.0081186887499662
  86    -0.076008226434599
  87      -0.2610258421391
  88     0.030534523105462
  89     0.012969609736513
  90    1.0861398502701e-17
  91    -0.015525356977054
  92    -0.0087141812266706
  93    5.101242060266e-17
  94    -0.087457283506376
  95    -0.059258634630563
  96    -1.766760203269e-17
  97    0.0054744063007741
  98    -0.0037961373200544
  99     0.000987481005256
 100    1.4959299235837e-17
 101    -0.011582611431582
 102      0.01040230286268
 103    2.2999445383588e-17
 104    -0.0014971765475581
 105    2.0413198188717e-17
 106    -0.029793533685045
 107     0.021194788240631
 108    1.6776201879308e-17
 109    0.0052865135581513
 110    9.7290403348998e-18
 111    -0.0034936589909612
 112     0.010759635577037
 113    2.7885991528324e-17
 114    -2.5866207621727e-17
 115    0.0081186887499668
 Sym= A
 Ene=    -4.723589971
 Spin= Alpha
 Occup=    0.00000
   1    -0.012188533967327
   2    0.0019518996524742
   3     0.024731266983864
   4     0.045446591675782
   5     0.056710432196838
   6    3.443232515607e-17
   7    -6.3918293786612e-16
   8      0.13947058892274
   9    -7.7490460766303e-17
  10    -5.9204445182453e-16
  11     0.073477842197852
  12    -1.142782894291e-16
  13    7.3998172825567e-15
  14     -0.31852725816443
  15    1.9921073624635e-16
  16    5.0939206893871e-15
  17    -0.039087807897836
  18      0.10220812288385
  19    -7.9483966601509e-16
  20    3.3166956181898e-16
  21     0.085304693370582
  22    5.5796894260489e-16
  23       0.4002002442206
  24    -1.2757902329747e-15
  25    -4.8673134564903e-16
  26      0.32134504361718
  27    2.6776434401442e-15
  28      0.24581067442868
  29    -5.759488913331e-16
  30    -4.407299409906e-15
  31      0.16195874074365
  32    1.141658159025e-15
  33    -0.013248092995457
  34    2.7543517574161e-17
  35    -7.6275871483575e-17
  36     -0.01004296463187
  37    -5.9189063523618e-17
  38    -4.9606036225833e-18
  39    -1.93664377078e-17
  40    -0.021972780678975
  41    7.3944793483439e-17
  42    2.0650921816332e-15
  43    -0.0070208276041885
  44    -2.3939253879393e-17
  45    1.271241036659e-17
  46    -1.1303280851338e-17
  47    0.0015702143554311
  48    -5.4297899828316e-18
  49    -2.5711791044221e-16
  50    0.0014196397375816
  51    -8.9470333109271e-18
  52    4.5921670149401e-18
  53    8.7287458449664e-17
  54    -0.00065590741714338
  55    4.0749249942636e-18
  56    -0.017421811533778
  57    -0.093403093503745
  58    -0.021511275683947
  59    -0.0028542710484349
  60    3.0919597635547e-17
  61    0.00026425692545978
  62    -0.010485987108501
  63    4.334411359847e-16
  64    -0.020097603017186
  65    -0.084407569204072
  66    5.2645667385928e-17
  67    0.0036129272110888
  68    0.0022018129709035
  69    -0.013123131527115
  70    5.0966477907989e-17
  71    0.0062831705402886
  72    -0.0061920087177053
  73    -5.0095908841769e-17
  74    -0.036352556992684
  75    1.7691526900719e-16
  76     0.015975658830491
  77    -0.022634017329779
  78    -2.5403178915869e-16
  79    -0.005822516919907
  80    2.6261074290561e-17
  81     0.012370479709484
  82    -0.0015318846626679
  83    -6.8432552833851e-17
  84    -3.2477903873805e-17
  85    0.0070099181946909
  86    -0.017421811533779
  87    -0.093403093503738
  88    -0.021511275683931
  89    -0.0028542710484319
  90    -4.1068425303275e-18
  91    -0.0002642569254601
  92    -0.010485987108501
  93    -2.2471503044896e-16
  94     0.020097603017192
  95    -0.084407569204071
  96    -3.2801385342683e-17
  97    -0.0036129272110819
  98    0.0022018129709073
  99    -0.013123131527116
 100    -4.0944378356391e-17
 101    -0.0062831705402883
 102    -0.0061920087177056
 103    -2.1996148049253e-17
 104    -0.036352556992687
 105    -1.3664274444705e-16
 106    -0.015975658830489
 107    -0.022634017329781
 108    -9.8510796339157e-17
 109    -0.0058225169199075
 110    -4.8531478869547e-17
 111    -0.012370479709485
 112    -0.0015318846626683
 113    -5.7599589738795e-17
 114    1.7667996678581e-17
 115    -0.0070099181946913
 Sym= A
 Ene=    -4.659652918
 Spin= Alpha
 Occup=    0.00000
   1    4.4921695934793e-16
   2    1.1641686877864e-16
   3    -1.3671308650136e-15
   4    6.1109484923668e-16
   5    -3.378445399044e-16
   6     -0.26383245955208
   7    -1.9041615252102e-15
   8    -4.5319312407798e-17
   9     -0.12728448937421
  10    -1.6647649517678e-16
  11    -5.6713203559006e-17
  12      0.53369459676059
  13    1.4300801538613e-15
  14    6.3051656645054e-16
  15     0.040623205556346
  16    -5.6656275381026e-16
  17    4.2146379664485e-16
  18    2.4475487016708e-17