[Molden Format]
made by pyscf v[2.14.0]
[Atoms] (AU)
O   1   8     0.00000000000000     0.00000000000000     0.22166487450000
H   2   1     0.00000000000000     1.43090062180000    -0.88665949780000
H   3   1     0.00000000000000    -1.43090062180000    -0.88665949780000
[GTO]
1 0
 s    9 1.00
                 61420  9.0738926792129e-05
                  9199  0.00070373078778785
                  2091  0.0036940825307373
                 590.9   0.015342944310251
                 192.3    0.05285340843582
                 69.32    0.14711905484927
                 26.97    0.30776425905235
                  11.1    0.40177986931198
                 4.682    0.21876147039285
 s    9 1.00
                 61420  -5.6106385876036e-05
                  9199  -0.00044604576771449
                  2091  -0.0023256096945617
                 590.9  -0.0098410600826567
                 192.3  -0.034101461335455
                 69.32   -0.10172368291255
                 26.97    -0.2328190588312
                  11.1   -0.42666101139432
                 4.682   -0.32354027947345
 s    1 1.00
                 1.428                   1
 s    1 1.00
                0.5547                   1
 s    1 1.00
                0.2067                   1
 p    3 1.00
                 63.42   0.031327502519451
                 14.66    0.21665424847957
                 4.459    0.83524284223889
 p    1 1.00
                 1.531                   1
 p    1 1.00
                0.5302                   1
 p    1 1.00
                 0.175                   1
 d    1 1.00
                 3.775                   1
 d    1 1.00
                   1.3                   1
 d    1 1.00
                 0.444                   1
 f    1 1.00
                 2.666                   1
 f    1 1.00
                 0.859                   1
 g    1 1.00
                 1.846                   1

2 0
 s    3 1.00
                 82.64   0.022950757792906
                 12.41    0.17554011805411
                 2.824    0.86470355096212
 s    1 1.00
                0.7977                   1
 s    1 1.00
                0.2581                   1
 s    1 1.00
               0.08989                   1
 p    1 1.00
                 2.292                   1
 p    1 1.00
                 0.838                   1
 p    1 1.00
                 0.292                   1
 d    1 1.00
                 2.062                   1
 d    1 1.00
                 0.662                   1
 f    1 1.00
                 1.397                   1

3 0
 s    3 1.00
                 82.64   0.022950757792906
                 12.41    0.17554011805411
                 2.824    0.86470355096212
 s    1 1.00
                0.7977                   1
 s    1 1.00
                0.2581                   1
 s    1 1.00
               0.08989                   1
 p    1 1.00
                 2.292                   1
 p    1 1.00
                 0.838                   1
 p    1 1.00
                 0.292                   1
 d    1 1.00
                 2.062                   1
 d    1 1.00
                 0.662                   1
 f    1 1.00
                 1.397                   1

[6d]
[10f]
[15g]

[MO]
 Sym= A
 Ene=    -33.10431779
 Spin= Alpha
 Occup=    2.00000
   1       1.0684957088881
   2    0.0099512274511229
   3    -0.084078450804036
   4     -0.20389086291647
   5    -0.041871113295125
   6    1.0839071373052e-19
   7    -2.9516757468203e-17
   8    -0.002432712022655
   9    1.0925303410019e-23
  10    1.2239250323605e-15
  11    0.0045945769587906
  12    1.6580649533572e-22
  13    -5.5355929709402e-15
  14    0.0016728533625217
  15    1.7345641792508e-24
  16    -8.882339936426e-16
  17    0.0030746353684292
  18     0.021647097477727
  19     0.023260095380593
  20     0.022536976836556
  21    3.690797729324e-26
  22    -8.824143818998e-24
  23    1.566258642723e-16
  24      0.12845391206905
  25      0.12145116429633
  26      0.12466800943969
  27    -1.9773587958621e-25
  28    2.0460354052447e-23
  29    -6.9742520187197e-16
  30     0.028509715828791
  31     0.025392549601126
  32      0.02582859694341
  33    5.4290613093374e-26
  34    5.161217373442e-25
  35    9.0662324087581e-16
  36    -4.6041673047218e-25
  37    9.4130122169686e-17
  38    -0.00069227903302086
  39    3.9774053266651e-24
  40    3.4243729626167e-17
  41    -0.00031820208355717
  42    2.6748645511292e-24
  43    4.4155372437269e-17
  44    -0.00023629585467933
  45    -3.7062785039376e-26
  46    -1.2939268430682e-22
  47    2.1775876278328e-15
  48    0.0031753253281733
  49    -5.2846829476365e-23
  50    1.0052622947376e-15
  51    0.0011128894591457
  52    -5.7174885590883e-23
  53    5.9900442372806e-16
  54    0.0019012806345739
  55    1.1826896956227e-25
  56    -0.034029737060279
  57    -0.030936732130278
  58    -0.032651636286511
  59    6.9019065023504e-26
  60    -9.6030956197744e-24
  61    1.840555696409e-25
  62    3.0980902314297e-16
  63    -1.155299628488e-23
  64    3.9802099237303e-16
  65    -0.019150506528938
  66    -0.019524755774947
  67    -0.018580236273807
  68    1.1179821225258e-16
  69    -9.9470178202383e-24
  70    -1.3038173910009e-26
  71    -0.00027979966387877
  72    0.0048649266534416
  73    0.0040822356081128
  74    0.0016793369546666
  75    -3.5252672694722e-24
  76    0.0032736587177018
  77    -0.0026231907550728
  78    1.3160280424339e-23
  79    -0.012968966567758
  80     0.010120452951627
  81    -2.3837399570844e-24
  82    -0.0015676150473489
  83    0.0008430811351455
  84    -7.2945503546133e-06
  85     -4.0523345841e-06
  86    -6.2318613825974e-05
  87    3.2111104309599e-24
  88    -2.1733137087158e-24
  89    6.0425708549495e-05
  90    -2.1450895582983e-05
  91    0.0029112023896688
  92    0.0014096155446499
  93    9.8585862365371e-25
  94    -2.2975098673104e-24
  95    -0.0024043426294075
  96    -3.1798347536005e-24
  97     0.003573379745229
  98    -0.0032950858749435
  99    -8.1096206461431e-24
 100    0.0019532983689845
 101    -0.0016076619929934
 102    -6.0034029647976e-24
 103    0.0014543987130269
 104    -0.00076639520840057
 105    6.5431179049087e-24
 106    -0.00027979966387843
 107    0.0048649266534402
 108    0.0040822356081071
 109    0.0016793369546664
 110    -4.0932689059364e-24
 111    -0.0032736587177022
 112    -0.0026231907550726
 113    1.5624094413084e-23
 114     0.012968966567759
 115     0.010120452951626
 116    -2.7898311027107e-24
 117    0.0015676150473466
 118    0.00084308113514441
 119    -7.2945503544693e-06
 120    -4.0523345839823e-06
 121    -6.2318613825783e-05
 122    -2.8621515185773e-24
 123    -2.3852917854248e-24
 124    -6.0425708549548e-05
 125    -2.1450895582456e-05
 126    0.0029112023896687
 127    0.0014096155446505
 128    -1.5374247561868e-24
 129    -1.8235761838919e-24
 130    0.0024043426294074
 131    -4.5124786885003e-24
 132    -0.0035733797452298
 133    -0.003295085874943
 134    -8.8207006506472e-24
 135    -0.0019532983689848
 136    -0.0016076619929932
 137    -6.4199098670416e-24
 138    -0.0014543987130272
 139    -0.00076639520840047
 140    -6.4197709269547e-24
 Sym= A
 Ene=    -9.250344651
 Spin= Alpha
 Occup=    2.00000
   1     0.070502128165385
   2      0.53639543206771
   3      0.72874944149074
   4      0.68028302588542
   5       0.1215665612701
   6    -1.7711489807592e-14
   7    6.6934347702902e-15
   8     -0.40535258558591
   9    -1.3563016810097e-14
  10    -2.2265896632998e-15
  11     -0.34544864162661
  12    2.9991272928165e-17
  13    4.8026347198352e-14
  14     0.029416347848036
  15    -3.1637099826166e-17
  16    4.990343081782e-15
  17    -0.0089050051510793
  18    -0.012585212371509
  19    -0.011681593105317
  20    -0.0020104999625212
  21    1.1764379802311e-19
  22    2.5461009126878e-16
  23    -5.2545036876582e-16
  24     -0.35800588782023
  25     -0.32956755221626
  26     -0.32941604483528
  27    -2.7593176713071e-19
  28    2.3396805311544e-16
  29      1.3094673275e-15
  30    -0.087843116635009
  31    -0.076311035354806
  32    -0.083241960844323
  33    2.4551435664963e-19
  34    -1.5341794907273e-17
  35    -7.3064599027326e-15
  36    -9.2404907598791e-16
  37    -4.5263478800068e-16
  38     -0.02493828237381
  39    -5.284713270249e-16
  40    -2.8044512045663e-16
  41    -0.0084002092881307
  42    -4.9112267279464e-16
  43    -8.2185910516929e-17
  44    -0.015190188731261
  45    5.9989710807182e-20
  46    -1.5490601242827e-16
  47    -1.2884450889918e-14
  48    -0.041084104564827
  49    -1.5560992620942e-16
  50    -7.2393084549692e-15
  51    -0.016168426839691
  52    -1.1354733498011e-16
  53    -6.015964292763e-15
  54     -0.02522611941671
  55    1.1888605743496e-19
  56      0.10177438839935
  57     0.096444342337938
  58      0.10226777394532
  59    3.4530051692038e-21
  60    4.4892205103308e-17
  61    -1.4157926728381e-19
  62    -1.7939175856088e-15
  63    8.2572395397123e-17
  64    -1.1757880597211e-15
  65     0.057490062218618
  66     0.058877463425961
  67     0.062279762600486
  68    -3.7008557933405e-16
  69    1.0281047427269e-16
  70    -8.2048127337324e-20
  71     0.007751914590604
  72    -0.012330452993954
  73    -0.0068352207181777
  74    -0.0052626741267759
  75     1.79751483649e-17
  76    -0.010568084337629
  77     0.010421717910942
  78    -1.5937521372911e-16
  79     0.031012884882519
  80    -0.034653026278949
  81    1.1719938236102e-17
  82    0.0028120507719567
  83    -0.0015597790084906
  84    0.00011600021785413
  85    0.00077466265289353
  86    0.00061228525998562
  87    -4.173295827496e-18
  88    2.5971568445469e-18
  89    -0.00045175994407222
  90    0.00043184032435784
  91    -0.0082231895759808
  92    -0.0052628561118652
  93    7.1930518328404e-18
  94    6.3911100202991e-18
  95    0.0083766580957639
  96    4.555562703343e-17
  97    -0.0071165667040246
  98     0.011354424355944
  99    5.7444413796497e-17
 100    -0.0044914359327622
 101     0.005165501512829
 102    4.6590923190105e-17
 103    -0.0028575645385292
 104    0.0023298905973692
 105    -3.5135939606308e-17
 106     0.007751914590603
 107    -0.012330452993942
 108    -0.0068352207181424
 109    -0.0052626741267772
 110    1.9814844947849e-17
 111     0.010568084337625
 112     0.010421717910934
 113    -1.662160945164e-16
 114      -0.0310128848825
 115    -0.034653026278915
 116    1.3108793138294e-17
 117    -0.0028120507719439
 118    -0.0015597790084829
 119    0.00011600021785392
 120    0.00077466265289369
 121    0.00061228525998573
 122    4.0903259466978e-18
 123    2.4149870958689e-18
 124    0.0004517599440728
 125    0.00043184032435681
 126    -0.0082231895759769
 127    -0.0052628561118613
 128    -7.6966379825351e-18
 129    6.5433995825148e-18
 130    -0.0083766580957585
 131    4.9107747798746e-17
 132    0.0071165667040193
 133     0.011354424355932
 134    5.8472186643501e-17
 135    0.0044914359327594
 136    0.0051655015128231
 137    4.7540431657169e-17
 138    0.0028575645385282
 139    0.0023298905973645
 140    3.4807762992382e-17
 Sym= A
 Ene=    -9.135734502
 Spin= Alpha
 Occup=    2.00000
   1    -4.3710416745139e-15
   2    -1.2432584363604e-14
   3    -1.5574869985936e-15
   4    -5.8013183739718e-14
   5    -1.9362854527096e-14
   6    3.9915043545209e-14
   7      0.58079355730424
   8    2.8779406436188e-15
   9    2.4618046623845e-14
  10      0.48319052336828
  11    -7.8450006116123e-16
  12    -2.9424144768968e-15
  13    -0.046788931151631
  14    3.3214267941644e-14
  15    -2.6707175287951e-16
  16     0.001257081180409
  17    3.9508388815419e-15
  18    -7.0342969377484e-18
  19    2.0452837112764e-15
  20    1.1927789340517e-15
  21    5.8292094912559e-16
  22    -1.2493305125917e-15
  23    -0.011055986956734
  24    1.5239461035762e-14
  25    3.9972980530218e-15
  26    5.2770124432521e-15
  27    -3.4283500579402e-15
  28    1.703766392543e-15
  29    -0.012226041092786
  30    6.7084443297982e-15
  31    -5.4379750625755e-16
  32    5.5652076838739e-16
  33    1.6418370998692e-16
  34    4.1408560282999e-17
  35     0.003125407019089
  36    3.6570555831303e-15
  37     0.034540058036361
  38    -7.3134464601781e-16
  39    1.9598127819815e-15
  40     0.010112100893289
  41    -1.8530558283507e-17
  42    2.080889320565e-15
  43     0.015945693046657
  44    -8.7745593949825e-17
  45    5.5201066217178e-17
  46    2.1042215086123e-15
  47     0.051669380630154
  48    -6.9339476923463e-15
  49    1.1314409532731e-15
  50      0.01841322128804
  51    -4.5902199282488e-15
  52    9.3050934150465e-16
  53     0.021732511300217
  54    -1.3380351310654e-15
  55    5.9559145268654e-17
  56    -4.2989594669861e-15
  57    9.7636010494813e-16
  58    8.2187968321086e-16
  59    1.143038016531e-15
  60    -1.1002268516843e-15
  61    1.1385204785153e-15
  62    -0.012068526719694
  63    -1.1635826666995e-15
  64    -0.006197277297504
  65    -1.0698279668174e-15
  66    -8.4744220769555e-16
  67    1.0006299255611e-16
  68    -0.0012886620195181
  69    -6.27286476598e-16
  70    5.0641126599601e-16
  71    0.0064416243551803
  72    -0.0026007137369161
  73    0.0054299663255427
  74    -0.0016071272417162
  75    -1.6059552231269e-16
  76    -0.0042711781000539
  77    0.0017589395536746
  78    7.7763904914984e-16
  79     0.015008820469131
  80    -0.0052909098396542
  81    -8.8072947863595e-17
  82    0.00026050155110616
  83    -0.00065024360790869
  84    0.00080554351312901
  85    -0.00099960334729009
  86    -0.00054870360495989
  87    -5.2740850740691e-18
  88    9.7729905809299e-19
  89    0.0019714050798177
  90    0.0015380834764326
  91    -0.0066777857226418
  92    -0.0041367394137215
  93    -5.333809539505e-17
  94    3.2550669727522e-17
  95    0.0059692134993081
  96    -2.681510365091e-16
  97    -0.0024917480485647
  98    -0.00081085967984621
  99    -1.7262471404494e-16
 100    -0.0027872200333218
 101    0.00082966018549328
 102    -1.5126969030995e-16
 103    0.00074032937718015
 104    -0.0028317182893808
 105    4.8532745747935e-17
 106    -0.0064416243551825
 107    0.0026007137369404
 108    -0.0054299663255174
 109    0.0016071272417161
 110    -5.7974841351636e-17
 111    -0.0042711781000635
 112    -0.0017589395536819
 113    4.071337389971e-16
 114     0.015008820469172
 115    0.0052909098396849
 116    -2.4667159944094e-17
 117    0.00026050155111496
 118    0.00065024360791486
 119    -0.00080554351313083
 120    0.00099960334728884
 121    0.00054870360495838
 122    1.0103676956843e-17
 123    9.1367290363755e-18
 124    0.0019714050798178
 125    -0.0015380834764325
 126      0.00667778572265
 127    0.0041367394137253
 128    3.5840043315788e-17
 129    -2.0984491175054e-18
 130    0.0059692134993146
 131    -1.4282486949811e-16
 132    -0.0024917480485762
 133    0.00081085967983631
 134    -9.752769417655e-17
 135    -0.0027872200333274
 136    -0.00082966018549799
 137    -9.0348927204924e-17
 138    0.00074032937717539
 139    0.0028317182893778
 140    -3.1763523442987e-17
 Sym= A
 Ene=    -9.073191335
 Spin= Alpha
 Occup=    2.00000
   1    3.5164900410093e-15
   2    3.6905474434896e-14
   3    5.0135403252989e-14
   4    5.0754002675633e-14
   5    1.0949526066813e-14
   6      0.59305606197047
   7    -3.6607201120959e-14
   8    5.6610471322251e-15
   9      0.44683199015276
  10    -2.7070788009059e-14
  11    4.2808840882594e-15
  12    0.0011446356108174
  13    -1.0114640885302e-15
  14    -2.7489870872954e-15
  15    0.0018985880212184
  16    8.959166481028e-16
  17    -2.304146579144e-15
  18    2.0216545903075e-15
  19    9.0125689185944e-16
  20    1.9147521197073e-15
  21    6.423649925155e-16
  22    -0.0085225401993949
  23    1.7073121886143e-15
  24    -3.224123174263e-14
  25    -2.5332006930669e-14
  26    -2.8874239863575e-14
  27    -8.239151900214e-16
  28    -0.0091962905901244
  29    -6.3252634367743e-15
  30    -7.1977813356476e-15
  31    -3.5717995183093e-15
  32    -3.8031918951787e-15
  33    7.0371380150124e-16
  34    0.00022708271202786
  35    7.8741719438416e-16
  36     0.032133325660281
  37    -2.8480586488646e-15
  38    -2.1547697935551e-16
  39     0.018190115546974
  40    -1.1884964428336e-15
  41    1.7299422650823e-16
  42     0.016955403762231
  43    -1.7816968434909e-15
  44    -4.2803404178026e-16
  45    -2.020185568979e-16
  46     0.015826263091917
  47    -7.4954800061734e-16
  48    -8.0034142880592e-16
  49    0.0099936834490593
  50    -3.2672646459756e-16
  51    -9.0886313802925e-19
  52    0.0087449528342232
  53    -9.8028756398506e-16
  54    -7.2128751648707e-17
  55    -2.0127062753877e-16
  56     1.26053241917e-14
  57    7.6712247819832e-15
  58    1.057400712106e-14
  59    7.0676125244194e-16
  60    -0.001187781925581
  61    7.1617150398297e-16
  62    3.3680835048676e-15
  63    -0.0024058436717074
  64    3.1420112360206e-15
  65    6.3945009762547e-15
  66    6.7087755750419e-15
  67    5.2217118827723e-15
  68    1.192914958009e-15
  69    -0.0031432795943335
  70    3.242371522535e-16
  71    1.5719437126838e-15
  72    -6.8391553590956e-15
  73    -3.9003112570058e-15
  74    -1.2677047104865e-15
  75    -0.00031445344269156
  76    4.6145909618044e-16
  77    1.6122521914742e-15
  78    0.0044715027638287
  79    -1.817285481662e-15
  80    -5.327583500482e-15
  81    -0.00034844416936097
  82    1.5689077071819e-15
  83    -5.3567186218327e-16
  84    9.5784362682869e-16
  85    1.1689652801794e-15
  86    1.3962502224347e-15
  87    -2.7442974652363e-05
  88    3.4650773664733e-05
  89    -9.4484324630849e-17
  90    1.2033718652657e-15
  91    3.0711495025167e-16
  92    1.9103869857865e-16
  93    -0.00023797297751192
  94    -0.00015935822212731
  95    4.2509644665786e-16
  96    -0.0012850370124677
  97    1.7482387211044e-15
  98    1.718624397244e-15
  99    -0.0015117461787906
 100    6.9944995813081e-16
 101    9.3774458699364e-16
 102    -0.001250317202992
 103    6.1815909785611e-16
 104    9.9899629902545e-16
 105    0.00087604663488579
 106    3.3590501122596e-16
 107    -1.9600958689232e-15
 108    -8.9987734613541e-16
 109    1.425359803864e-16
 110    -0.00031445344269287
 111    4.8466736024975e-16
 112     9.11515768571e-16
 113    0.0044715027638336
 114    -1.9506288352146e-15
 115    -2.5554790646038e-15
 116    -0.00034844416936128
 117    -1.1342486119966e-15
 118    -8.6314676388847e-17
 119    -4.2741418241949e-16
 120    -4.5412224901966e-16
 121    -5.0219101237943e-18
 122    2.7442974652338e-05
 123    3.4650773664703e-05
 124    -2.8864806282219e-16
 125    -3.2913958062927e-16
 126    -2.2688270536166e-15
 127    -5.1405790395461e-16
 128    0.00023797297751218
 129    -0.00015935822212706
 130    -1.2878367956865e-17
 131    -0.0012850370124699
 132    -5.6083707117838e-16
 133    9.0676931436651e-16
 134    -0.0015117461787915
 135    9.3813928748664e-17
 136    4.0478153327442e-16
 137    -0.001250317202993
 138    3.2291616599575e-16
 139    1.9638367750226e-16
 140    -0.00087604663488574
 Sym= A
 Ene=    -8.967393727
 Spin= Alpha
 Occup=    2.00000
   1     0.077108190151076
   2      0.55237624209565
   3      0.74702434517052
   4      0.68011811149157
   5      0.13815508751504
   6    -2.5221412313149e-14
   7    1.7394646079652e-15
   8      0.42308873548978
   9    -1.9526733521341e-14
  10    -9.9924077631004e-15
  11       0.3262020904799
  12    4.7641379588725e-16
  13    7.0951984387131e-14
  14    -0.042276644138131
  15    -1.3222537214494e-16
  16    8.003981149575e-15
  17    -0.011142793927931
  18    -0.0059536463776547
  19    -0.0077159733202957
  20    -0.017375717298196
  21    4.2329264384603e-20
  22    3.6755414239003e-16
  23    -4.4606639905689e-16
  24     -0.36206106609831
  25     -0.33789003714623
  26     -0.36034871604603
  27    3.0144081865126e-19
  28    4.3452576185921e-16
  29    1.317150019511e-15
  30      -0.0889462427332
  31    -0.077325292846122
  32    -0.072161424814232
  33    -2.7908149945281e-19
  34    -1.830716037288e-18
  35    -1.2114980371748e-14
  36    -1.4192951280932e-15
  37    -6.7948286515416e-16
  38     0.022198367332081
  39    -7.9835931567592e-16
  40    -2.70904570804e-16
  41    0.0078050662996643
  42    -7.455684983373e-16
  43    -1.8575505013954e-16
  44     0.010697083697772
  45    -6.279018062886e-20
  46    -9.9376020944725e-16
  47    -1.7867022823159e-14
  48     0.018491674514566
  49    -5.7079703571012e-16
  50    -1.0421123731535e-14
  51     0.009493952268118
  52    -5.2170663327561e-16
  53    -8.1514284644883e-15
  54    0.0085534954687076
  55    -1.5060644995333e-19
  56       0.1079063816654
  57     0.096262209175179
  58      0.09777293689054
  59    -2.2917536787645e-21
  60    4.2478346961342e-17
  61    1.4694560013684e-19
  62    -2.0819446563602e-15
  63    9.3746631155275e-17
  64    -1.39383386999e-15
  65     0.060195616773944
  66     0.060815687470647
  67     0.053536824021661
  68    -4.3069008011894e-16
  69    1.2711743296961e-16
  70    9.7013471654432e-20
  71    0.00090783561793865
  72    -0.0085010913523266
  73    -0.018345697776192
  74    -0.0050178928023196
  75    5.5290862695525e-18
  76     -0.01225479960829
  77    0.0060621848229753
  78    -1.6823358934001e-16
  79      0.03914531672366
  80    -0.013955837458615
  81    1.382874260274e-17
  82    0.0051155020939282
  83    -0.0021862910565526
  84    -0.00083175430697377
  85    0.0022181506557075
  86    0.00087899304742314
  87    5.8195059344014e-18
  88    -4.8968715932306e-18
  89    -0.0029755928925779
  90    -0.0020296538354136
  91    -0.0056525848333077
  92    -0.001301100716622
  93    1.0175208151584e-17
  94    5.4015497639966e-18
  95    0.00058430834584511
  96    4.8656781129287e-17
  97     -0.01527091020928
  98    0.0049266710415767
  99    5.3600008079679e-17
 100    -0.005827273747493
 101    0.0023077757235605
 102    4.5181017910145e-17
 103    -0.0071817995428064
 104     0.004204510448356
 105    -2.9250601790844e-17
 106    0.00090783561793772
 107    -0.0085010913523055
 108    -0.018345697776145
 109    -0.0050178928023197
 110    3.5604529624264e-18
 111     0.012254799608284
 112    0.0060621848229644
 113    -1.6094285014396e-16
 114    -0.039145316723629
 115    -0.013955837458568
 116    1.2341218857833e-17
 117    -0.0051155020939101
 118    -0.0021862910565406
 119    -0.00083175430697397
 120    0.0022181506557079
 121    0.00087899304742335
 122    -5.7679247322222e-18
 123    -4.6677941155516e-18
 124    0.0029755928925785
 125    -0.0020296538354133
 126    -0.0056525848333008
 127    -0.0013011007166149
 128    -9.5396774641057e-18
 129    5.1598121639479e-18
 130    -0.00058430834583739
 131    4.4886876673011e-17
 132     0.015270910209272
 133    0.0049266710415611
 134    5.2542392988278e-17
 135    0.0058272737474889
 136    0.0023077757235529
 137    4.4172932379218e-17
 138    0.0071817995428042
 139    0.0042045104483498
 140    2.9615482052495e-17
 Sym= A
 Ene=     -5.16739234
 Spin= Alpha
 Occup=    0.00000
   1    2.3950050564328e-15
   2    2.1896096980817e-15
   3    -2.6085017516683e-14
   4    1.4986909362371e-13
   5    3.5393646313877e-14
   6    -2.1130966470252e-15
   7     -0.26001225089276
   8    2.7041827734731e-15
   9    1.3843979419413e-15
  10     -0.24593837470612
  11    1.6799304565477e-14
  12    1.7056440327439e-15
  13      0.43527935051841
  14    -1.3190804229856e-13
  15    1.1955851949263e-16
  16     0.027249921318424
  17    -1.1185269817494e-14
  18    1.4096352347106e-15
  19    -4.1299642826419e-15
  20    -7.0503417484657e-16
  21    -2.4142238198492e-15
  22     1.16833091655e-15
  23    -0.082285465424412
  24    -1.823822879701e-14
  25    4.2130808668634e-15
  26    2.2933322259534e-15
  27    1.2408903674982e-14
  28    -5.443067746629e-15
  29     -0.27371171220541
  30    -1.0910475922563e-14
  31    1.7767341041099e-14
  32    2.6110263901269e-14
  33    2.4453492403228e-15
  34    -4.3055457351714e-16
  35     -0.15125275744679
  36    -3.7955873561016e-16
  37    0.0081356719434082
  38    3.6406304628746e-16
  39    3.7703450434936e-16
  40    0.0010682846949883
  41    -2.6419665370758e-17
  42    -6.0520672060261e-16
  43     0.015510673957433
  44    -8.7311572965227e-17
  45    -2.1815270930669e-17
  46    4.4502720265873e-16
  47     -0.10171234371911
  48    2.1683888844548e-14
  49    -5.5519012207468e-16
  50    -0.045338932196937
  51    1.3336249516119e-14
  52    8.8284372022047e-16
  53    -0.022183411246766
  54    4.0582442344116e-15
  55    -9.4139588202793e-16
  56    4.6324732052229e-15
  57    -5.0731758940818e-15
  58    -3.0952638748342e-15
  59    -4.5763721647953e-15
  60    2.0595546119465e-15
  61    -4.2684185776238e-15
  62     0.012679768391764
  63    2.0872123658164e-15
  64    0.0072403514384148
  65    -3.2744871555975e-16
  66    2.6764480480099e-16
  67    2.2778155964237e-16
  68    0.0025342808050152
  69    8.2544073766218e-16
  70    -1.6391604982824e-15
  71     0.084419935616842
  72      0.30443507323739
  73     0.025239356961476
  74    -0.0028214384003482
  75    1.2567110174478e-15
  76    -0.012288307453298
  77     0.016134917438614
  78    -4.5147922620293e-15
  79     -0.15659837517121
  80     0.090885239038129
  81    4.3471351662347e-16
  82    -0.020853135621917
  83     0.010954450502628
  84    -0.0042508025425112
  85     0.014229956563157
  86    0.0068238956394419
  87    -5.3465530816672e-17
  88    -3.2982921091253e-17
  89    -0.018794881641836
  90    -0.020936095180683
  91     0.040343469945997
  92     0.012092046073645
  93    9.7503835298485e-16
  94    -4.0246006222497e-16
  95    -0.046023121077125
  96    1.6965674272164e-15
  97     0.010024632972479
  98    -0.00066568170241297
  99    6.2817815341868e-16
 100     0.011042644373952
 101    -0.0036391158147185
 102    7.5983992968859e-16
 103    -0.0019758703884809
 104     0.012497784647331
 105    1.3377703136356e-16
 106    -0.084419935616843
 107     -0.30443507323747
 108    -0.025239356961526
 109    0.0028214384003468
 110    -5.3415070269013e-18
 111    -0.012288307453245
 112    -0.016134917438586
 113    2.3557305499918e-16
 114     -0.15659837517144
 115    -0.090885239038253
 116    8.120371017278e-16
 117    -0.020853135621941
 118    -0.010954450502642
 119    0.0042508025425108
 120    -0.014229956563159
 121    -0.0068238956394434
 122    -3.779980872255e-17
 123    2.9932167181703e-17
 124    -0.018794881641838
 125     0.020936095180668
 126    -0.040343469946047
 127    -0.012092046073669
 128    4.5658235068571e-16
 129    3.0303016576881e-16
 130    -0.046023121077148
 131    -4.2396009883092e-17
 132     0.010024632972553
 133    0.00066568170245432
 134    4.205391624968e-17
 135     0.011042644373986
 136    0.0036391158147374
 137    3.8519295502434e-18
 138    -0.0019758703884484
 139    -0.012497784647317
 140    1.2385936162902e-16
 Sym= A
 Ene=    -5.094825507
 Spin= Alpha
 Occup=    0.00000
   1     0.077692368124678
   2      0.33505893369326
   3      0.61621741503198
   4      0.35801412065794
   5       0.0418654653899
   6    -4.5099062891008e-16
   7    -8.8227542853755e-16
   8     -0.23508481579169
   9    7.8950569212305e-16
  10    -2.2435216333647e-15
  11     -0.21657915684335
  12    -2.9982171014794e-15
  13    -1.4212978092952e-14
  14      0.43904410794658
  15    7.1562470176767e-16
  16    1.0823889581279e-14
  17     0.025015273522191
  18      0.05349374251299
  19    -0.034718484477369
  20    -0.014956733909567
  21    -7.9296393605785e-18
  22    5.654167990906e-17
  23    -1.0825110814527e-15
  24     -0.10728010557961
  25     -0.37008929956595
  26     -0.33922980861163
  27    -3.9450660291873e-17
  28    6.482640993606e-17
  29    -1.3809507806508e-16
  30    -0.021082450838061
  31     -0.13781048057406
  32     -0.18934387537394
  33    -2.7493399734608e-18
  34    5.9943910650065e-17
  35    6.0233040550413e-15
  36    4.893965079982e-18
  37    4.3420092913623e-16
  38    0.0078525399437355
  39    -7.1849249076078e-18
  40      8.4452427973e-17
  41    -0.00096534589359633
  42    -5.3938001972037e-18
  43    9.9756847945322e-17
  44     0.010662638679501
  45    4.5091315170354e-19
  46    6.6679639818015e-16
  47    -4.2185259534136e-15
  48    -0.055510616879347
  49    2.8633943608957e-16
  50    5.6002579404027e-16
  51    -0.045130879194327
  52    2.8780164088961e-16
  53    -7.7756398163706e-16
  54    -0.038722880178314
  55    2.6935622117485e-18
  56      0.07794958033978
  57     0.080394070456724
  58     0.075645254122722
  59    4.9431915725229e-18
  60    1.3008236206328e-17
  61    3.405297042629e-18
  62    6.7271845272524e-16
  63    1.6331352745661e-17
  64    2.2749320818528e-16
  65      0.04665392087063
  66     0.046009118843127
  67     0.053848085433523
  68    7.1879514859412e-17
  69    1.2373363749349e-17
  70    1.8508858605089e-18
  71    -0.080276144141772
  72     -0.32342854963487
  73    -0.018829214013377
  74    -0.0033275508679764
  75    2.3199008056677e-17
  76     0.011841562963884
  77    0.0031916800728321
  78    -1.4875055721088e-16
  79       0.1511924552619
  80     -0.14204195134927
  81    1.5376902916261e-17
  82     0.015167752753028
  83    -0.015884373200023
  84    0.0049237117050417
  85    -0.015928649505817
  86    -0.0034122574684971
  87    3.1666215478953e-18
  88    -1.0771058566366e-18
  89     0.014006916828843
  90      0.01302218033789
  91    -0.042606426673818
  92    -0.019214331837881
  93    2.0270216950247e-17
  94    -1.1166985184128e-17
  95     0.045296411399569
  96    4.6359585597494e-17
  97    -0.0019265038021345
  98     0.024653377180435
  99    2.073724131683e-17
 100    -0.010324717981395
 101     0.012488315664846
 102    2.4509247387317e-17
 103    -0.0013757852586608
 104    -0.00099046211517028