[Molden Format]
made by pyscf v[2.14.0]
[Atoms] (AU)
O   1   8     0.00000000000000     0.00000000000000     1.14092214800000
O   2   8     0.00000000000000     0.00000000000000    -1.14092214800000
[GTO]
1 0
 s    9 1.00
                 61420  9.0738926792129e-05
                  9199  0.00070373078778785
                  2091  0.0036940825307373
                 590.9   0.015342944310251
                 192.3    0.05285340843582
                 69.32    0.14711905484927
                 26.97    0.30776425905235
                  11.1    0.40177986931198
                 4.682    0.21876147039285
 s    9 1.00
                 61420  -5.6106385876036e-05
                  9199  -0.00044604576771449
                  2091  -0.0023256096945617
                 590.9  -0.0098410600826567
                 192.3  -0.034101461335455
                 69.32   -0.10172368291255
                 26.97    -0.2328190588312
                  11.1   -0.42666101139432
                 4.682   -0.32354027947345
 s    1 1.00
                 1.428                   1
 s    1 1.00
                0.5547                   1
 s    1 1.00
                0.2067                   1
 p    3 1.00
                 63.42   0.031327502519451
                 14.66    0.21665424847957
                 4.459    0.83524284223889
 p    1 1.00
                 1.531                   1
 p    1 1.00
                0.5302                   1
 p    1 1.00
                 0.175                   1
 d    1 1.00
                 3.775                   1
 d    1 1.00
                   1.3                   1
 d    1 1.00
                 0.444                   1
 f    1 1.00
                 2.666                   1
 f    1 1.00
                 0.859                   1
 g    1 1.00
                 1.846                   1

2 0
 s    9 1.00
                 61420  9.0738926792129e-05
                  9199  0.00070373078778785
                  2091  0.0036940825307373
                 590.9   0.015342944310251
                 192.3    0.05285340843582
                 69.32    0.14711905484927
                 26.97    0.30776425905235
                  11.1    0.40177986931198
                 4.682    0.21876147039285
 s    9 1.00
                 61420  -5.6106385876036e-05
                  9199  -0.00044604576771449
                  2091  -0.0023256096945617
                 590.9  -0.0098410600826567
                 192.3  -0.034101461335455
                 69.32   -0.10172368291255
                 26.97    -0.2328190588312
                  11.1   -0.42666101139432
                 4.682   -0.32354027947345
 s    1 1.00
                 1.428                   1
 s    1 1.00
                0.5547                   1
 s    1 1.00
                0.2067                   1
 p    3 1.00
                 63.42   0.031327502519451
                 14.66    0.21665424847957
                 4.459    0.83524284223889
 p    1 1.00
                 1.531                   1
 p    1 1.00
                0.5302                   1
 p    1 1.00
                 0.175                   1
 d    1 1.00
                 3.775                   1
 d    1 1.00
                   1.3                   1
 d    1 1.00
                 0.444                   1
 f    1 1.00
                 2.666                   1
 f    1 1.00
                 0.859                   1
 g    1 1.00
                 1.846                   1

[6d]
[10f]
[15g]

[MO]
 Sym= A
 Ene=    -11.81821996
 Spin= Alpha
 Occup=    2.00000
   1    -0.049902543913082
   2     -0.38415080440627
   3     -0.52290641082113
   4     -0.43759447514026
   5     -0.14168674885899
   6    -9.8758602537403e-15
   7    -1.7594553108614e-15
   8      0.31011798230425
   9    -6.5108088438728e-15
  10    -7.3681320579226e-16
  11      0.31974579546454
  12    -1.1030961345935e-15
  13    -7.7283868621132e-16
  14     -0.13586804794162
  15    3.6946382125276e-16
  16    -2.3676677775033e-16
  17     0.022501811205571
  18     0.014894738383349
  19     0.014894738383348
  20    -0.010633185924816
  21    1.3412442203261e-16
  22    5.112684023883e-16
  23    1.0196699487401e-16
  24      0.26365825086922
  25      0.26365825086922
  26      0.19435063481751
  27    9.0995578649387e-18
  28    6.5732011827008e-16
  29    1.1714849066286e-16
  30     0.076622306048764
  31     0.076622306048765
  32     0.080367474408468
  33    -1.2143644690678e-19
  34    5.3361960233235e-17
  35    1.1782909174006e-17
  36    -4.0983385177915e-16
  37    -5.2758843499123e-17
  38     0.025594838240634
  39    -1.8234184418478e-16
  40    -2.2931828933064e-17
  41    0.0051620542443813
  42    -4.495307005806e-16
  43    -7.0290737327888e-17
  44    0.0051620542443814
  45    -3.8829264772659e-19
  46    1.811109591183e-16
  47    2.4091139664533e-16
  48     0.082679046143363
  49    8.2229028228541e-17
  50    1.0570103047245e-16
  51     0.029568930401968
  52    -1.7275543248042e-16
  53    6.7084942331707e-17
  54     0.029568930401968
  55    -3.9293900592772e-19
  56    -0.071037382731456
  57     -0.07103738273146
  58    -0.070516286915833
  59    -1.1046534570442e-18
  60    4.6347616675662e-17
  61    -1.1174821282688e-18
  62    9.8732049431703e-18
  63    2.4445180155609e-16
  64    4.0834066297983e-17
  65    -0.041595232193821
  66    -0.039075234825345
  67    -0.039075234825346
  68    3.8831153877285e-18
  69    2.1074032929472e-17
  70    -2.6031364167144e-19
  71     0.049902543913294
  72      0.38415080440657
  73      0.52290641082132
  74      0.43759447514049
  75        0.141686748859
  76    -1.0221266697894e-15
  77    -5.4557997076057e-16
  78      0.31011798230424
  79    -9.0334181995545e-16
  80    -4.1649128685355e-16
  81      0.31974579546461
  82    2.6912260858131e-17
  83    -9.0785456894969e-17
  84     -0.13586804794188
  85    3.0316234513313e-17
  86    7.426078203393e-19
  87     0.022501811205596
  88    -0.014894738383409
  89    -0.014894738383445
  90     0.010633185924812
  91    3.7119408014985e-20
  92    -1.0738122717088e-16
  93    -4.610867782612e-17
  94     -0.26365825086933
  95     -0.26365825086916
  96     -0.19435063481788
  97    -6.2072556643921e-20
  98    -1.533928266844e-16
  99    -8.0217922945422e-17
 100    -0.076622306048788
 101    -0.076622306048796
 102    -0.080367474408493
 103    1.1058042597088e-19
 104    -4.7862060104542e-17
 105    -5.3922113230513e-17
 106    -6.3414836502319e-18
 107    -2.0887998657715e-17
 108     0.025594838240629
 109    -2.1352666816707e-18
 110    -9.1540842222323e-18
 111    0.0051620542443811
 112    -1.0138187116548e-16
 113    -3.6023505321556e-17
 114     0.005162054244381
 115    3.6578389378717e-20
 116    -8.7286887918047e-18
 117    1.9789784560008e-17
 118      0.08267904614349
 119    -4.4306982635683e-18
 120    8.1039033382843e-18
 121     0.029568930402028
 122    -1.559459421532e-16
 123    -5.5331048939707e-17
 124     0.029568930402028
 125    5.9345681543752e-20
 126     0.071037382731465
 127     0.071037382731361
 128     0.070516286916013
 129    3.1858327906789e-20
 130    -1.392288357713e-17
 131    2.0317368053488e-20
 132    -4.0057349173579e-18
 133    -1.2038436907035e-16
 134    -2.8037019739151e-17
 135     0.041595232193795
 136       0.0390752348254
 137     0.039075234825369
 138    -1.7674417326796e-18
 139    -7.3924320788019e-18
 140    6.561515782909e-20
 Sym= A
 Ene=    -11.52842715
 Spin= Alpha
 Occup=    2.00000
   1    2.1918694354447e-15
   2    1.8370373921894e-15
   3    1.1508003543123e-15
   4    1.8680073520247e-16
   5    -7.0707060131722e-15
   6      0.12641409761189
   7      0.38696187323391
   8    3.3308712288529e-15
   9     0.097445537426999
  10      0.29828720382756
  11    2.8669439027157e-15
  12    -9.5226204978598e-05
  13    -0.00029149368110688
  14    -1.0000512791686e-14
  15    0.00030003172037925
  16    0.00091841684385169
  17    1.0593989962678e-15
  18    -8.9530211359495e-17
  19    1.5689502265642e-15
  20    7.7882168305748e-16
  21    3.1913637977711e-16
  22    -0.0082587978746547
  23    -0.025280723879769
  24    -3.0513086535852e-15
  25    -5.3400739331279e-15
  26    -6.2197586085142e-16
  27    -1.1380825066656e-15
  28    -0.010776053124001
  29    -0.032986207881136
  30    1.794003532055e-15
  31    1.9577931210963e-15
  32    2.5293544647312e-15
  33    2.8939440800962e-18
  34    -0.0012534964308753
  35    -0.0038370350787358
  36    0.0052739365376428
  37     0.016143866866721
  38    6.2231510468211e-16
  39    0.0023585761214377
  40    0.0072197567467383
  41    3.4728409901943e-16
  42    0.0070083524664488
  43      0.02145302818224
  44    4.5317718233626e-16
  45    1.7719898717434e-16
  46    0.0020333601492808
  47    0.0062242492505815
  48    4.2138515612067e-15
  49    0.00090934630330634
  50    0.0027835688866409
  51    1.4820324270606e-15
  52     0.006141928481192
  53     0.018800847336244
  54    1.7706579631808e-15
  55    -4.0345641390588e-16
  56    2.5951201719318e-15
  57    4.1086844820666e-15
  58    1.9928695758488e-15
  59    3.9307925391731e-16
  60    -0.00067057225266975
  61    3.8656479435155e-16
  62    -0.0020526658017851
  63    -0.0047451389615966
  64    -0.014525182681535
  65    1.7791795520452e-15
  66    1.0324872852349e-15
  67    1.0543898446329e-15
  68    -0.00091798005357613
  69    -0.00029988902815898
  70    1.3740227280011e-16
  71    1.6562273403145e-15
  72    3.9064746091206e-15
  73    3.806774370952e-15
  74    1.9411500204897e-16
  75    6.4475269232676e-15
  76      0.12641409761192
  77      0.38696187323395
  78    3.0015861550082e-15
  79     0.097445537427016
  80      0.29828720382759
  81    4.9860619658586e-15
  82    -9.5226204966627e-05
  83    -0.00029149368115139
  84    -1.1218241653079e-14
  85    0.00030003172037804
  86    0.00091841684385586
  87    8.399196899684e-16
  88    -6.9585016476256e-16
  89    -4.5569642455862e-16
  90    -2.8056563217953e-16
  91    1.0366907142709e-16
  92    0.0082587978746559
  93     0.025280723879772
  94    -1.2989244047126e-15
  95    -2.4291745840824e-15
  96    9.8189170787277e-19
  97    -7.8400701343867e-16
  98     0.010776053124002
  99     0.032986207881134
 100    -1.9199064825639e-15
 101    -2.1549800539228e-15
 102    -3.5866904474566e-15
 103    2.7672887847812e-16
 104    0.0012534964308756
 105    0.0038370350787335
 106    0.0052739365376432
 107     0.016143866866728
 108    8.6818606553951e-16
 109    0.0023585761214379
 110    0.0072197567467415
 111    6.2820977731508e-16
 112    0.0070083524664496
 113     0.021453028182244
 114    4.981540899849e-16
 115    -2.0643747075575e-17
 116    0.0020333601492757
 117    0.0062242492506052
 118    4.8106329671531e-15
 119    0.00090934630330396
 120     0.002783568886651
 121    2.1176747684033e-15
 122    0.0061419284811904
 123     0.018800847336253
 124    1.9906735072323e-15
 125    -2.5500325521187e-16
 126    -2.8193434005795e-16
 127    5.8981906567953e-16
 128    -6.0845162783534e-16
 129    2.5805982206614e-16
 130    0.00067057225266983
 131    2.3009433406332e-16
 132    0.0020526658017872
 133    0.0047451389615969
 134     0.014525182681538
 135    -1.5527888485795e-16
 136    4.2162447632996e-16
 137    -1.6963803062092e-16
 138    0.00091798005357699
 139    0.00029988902815901
 140    5.7255805530261e-17
 Sym= A
 Ene=    -11.52842715
 Spin= Alpha
 Occup=    2.00000
   1    -5.7995830250929e-15
   2    -1.2196534837894e-14
   3    -1.148023138473e-14
   4    -8.166989394697e-15
   5    -1.0775427355617e-14
   6      0.38696187323393
   7     -0.12641409761186
   8    4.0616384360273e-15
   9      0.29828720382758
  10    -0.097445537426974
  11    3.886008217221e-15
  12    -0.0002914936811215
  13    9.5226204971524e-05
  14    8.5335104982152e-15
  15    0.0009184168438527
  16    -0.00030003172037767
  17    2.1694401036887e-15
  18    1.2261530674589e-15
  19    2.2885847800089e-15
  20    1.7584654872475e-15
  21    6.3957959084936e-16
  22    -0.025280723879775
  23    0.0082587978746602
  24    2.966730523964e-15
  25    5.362792742933e-15
  26    -1.2587366147159e-15
  27    -2.5239341222985e-15
  28    -0.032986207881113
  29     0.010776053123964
  30    3.2372771068442e-15
  31    1.9790420176008e-15
  32    -2.4617445346107e-16
  33    -3.8775140004265e-17
  34    -0.0038370350787334
  35    0.0012534964308768
  36     0.016143866866721
  37    -0.0052739365376402
  38    2.3006678636398e-16
  39    0.0072197567467385
  40    -0.0023585761214365
  41    -1.1571757595901e-15
  42     0.021453028182243
  43    -0.0070083524664473
  44    6.7383659064741e-16
  45    -2.8381229284994e-18
  46    0.0062242492505888
  47    -0.0020333601492775
  48    -1.267135368759e-15
  49    0.0027835688866444
  50    -0.0009093463033053
  51    -3.6519755778183e-15
  52     0.018800847336246
  53    -0.0061419284811895
  54    4.5081187876672e-16
  55    -2.3073255678536e-16
  56    -1.2236583433188e-15
  57    -4.1779518623637e-16
  58    2.2885719086771e-15
  59    9.1652967014984e-16
  60    -0.0020526658017962
  61    9.1260865548611e-16
  62    0.00067057225268417
  63    -0.014525182681546
  64    0.0047451389616097
  65    1.3063299106128e-15
  66    4.0736912237051e-16
  67    1.2750768059759e-15
  68    0.00029988902816539
  69    -0.00091798005358109
  70    5.125084253756e-16
  71    5.1756638936586e-15
  72    1.0753775831641e-14
  73    5.3239000399704e-15
  74    1.4175317155216e-14
  75    1.2394124923052e-14
  76      0.38696187323392
  77     -0.12641409761195
  78    6.6701385051199e-16
  79      0.29828720382757
  80    -0.097445537427041
  81    2.9074852599529e-15
  82    -0.00029149368108956
  83    9.5226204983037e-05
  84    -2.5446564857561e-15
  85    0.00091841684385091
  86    -0.00030003172037978
  87    3.0968073587479e-15
  88    -8.3955694341037e-16
  89    7.2080966017974e-16
  90    -6.6624629682793e-17
  91    2.3710366536983e-15
  92     0.025280723879772
  93    -0.0082587978746665
  94    -1.9734512605908e-15
  95    -1.1537366114098e-14
  96    -6.3792606681572e-15
  97    -1.1233848395549e-14
  98     0.032986207881123
  99    -0.010776053123964
 100    -2.6511413760035e-15
 101    -5.0178888613002e-15
 102    -1.934010035459e-15
 103    6.1016462794017e-16
 104    0.0038370350787366
 105    -0.0012534964308775
 106     0.016143866866718
 107    -0.0052739365376466
 108    1.4232893465846e-16
 109    0.0072197567467374
 110    -0.0023585761214394
 111    3.5026156146808e-16
 112      0.02145302818224
 113    -0.0070083524664514
 114    -4.5045352799399e-16
 115    -3.0370661586544e-19
 116    0.0062242492505729
 117    -0.0020333601492853
 118    3.6804645552558e-15
 119     0.002783568886637
 120    -0.00090934630330824
 121    3.7964908128401e-15
 122     0.018800847336241
 123    -0.0061419284811948
 124    -1.7697150635193e-15
 125    2.7638236527057e-16
 126    -3.718387374182e-15
 127    4.9574973608659e-15
 128    2.4338065113414e-15
 129    4.6259639902745e-15
 130     0.002052665801791
 131    4.6298234959227e-15
 132    -0.00067057225268715
 133     0.014525182681541
 134    -0.0047451389616137
 135    3.4173253220882e-15
 136    -1.198249162207e-15
 137    3.4063246975831e-15
 138    -0.00029988902816672
 139    0.00091798005357878
 140    2.1418342562821e-15
 Sym= A
 Ene=    -11.43879875
 Spin= Alpha
 Occup=    2.00000
   1    -1.3942281121396e-17
   2    -6.4106693859291e-16
   3    -1.6506915565767e-16
   4    3.8519839213046e-15
   5    -3.9254793064153e-15
   6      0.25455345208349
   7      0.34029073891205
   8    3.8338855230952e-15
   9      0.18867227206386
  10      0.25221982395969
  11    3.7084687982931e-15
  12    0.00070888574515889
  13    0.00094764872385521
  14    -4.4553110482414e-15
  15     0.001094646615779
  16    0.0014633394388578
  17    -1.4050755111505e-17
  18    -1.3377066730105e-15
  19    -1.4405657965728e-16
  20    -3.0305413933721e-16
  21    1.2562064639923e-16
  22    -0.013647471435821
  23    -0.018244137336052
  24    6.0005316671446e-16
  25    -3.2655117217316e-16
  26    3.5091428352374e-15
  27    -7.3439079448514e-16
  28    -0.019316363677655
  29    -0.025822394531134
  30    4.2385440227455e-16
  31    6.8075928612626e-16
  32    1.790960971314e-15
  33    -3.3517565925268e-16
  34    -0.00071681511780652
  35    -0.00095824882398773
  36     0.012998424544814
  37     0.017376482058457
  38    -6.2257605953915e-16
  39    0.0058130721765209
  40    0.0077709990185029
  41    -2.914178737602e-16
  42     0.011196408803339
  43     0.014967521334577
  44    -9.5693243906317e-17
  45    -1.7163013938736e-16
  46    0.0042961544792448
  47    0.0057431614863561
  48    1.599278413358e-16
  49    0.0019212986914868
  50    0.0025684198978514
  51    -6.0233624530396e-17
  52    0.0064361959529693
  53    0.0086039999013695
  54    -1.251926827383e-16
  55    -9.4938847424213e-16
  56    1.3839697485738e-16
  57    6.8340259581141e-16
  58    3.0020401562558e-17
  59    6.0806699747387e-16
  60    -0.00045899217506302
  61    6.1655899862729e-16
  62    -0.00061358738264705
  63    -0.0033677853691046
  64    -0.0045021042235757
  65    2.9389232848653e-16
  66    -7.2752275658292e-16
  67    -6.8222357533373e-16
  68    -0.00027440461954712
  69    -0.00020526754091626
  70    2.5731507880324e-16
  71    7.6348999021563e-15
  72    1.2081328408853e-14
  73    8.6214363330392e-15
  74    1.8138740308722e-15
  75    5.8454093738554e-15
  76     -0.25455345208355
  77     -0.34029073891199
  78    1.5170891885067e-15
  79     -0.18867227206391
  80     -0.25221982395964
  81    5.0928785780532e-15
  82    -0.00070888574517123
  83    -0.00094764872382748
  84    -1.3262180862221e-14
  85    -0.0010946466157773
  86     -0.00146333943886
  87    1.1143348641272e-16
  88    -1.0063129856744e-15
  89    -3.1651662015774e-16
  90    -8.2324707527982e-16
  91    -8.11699021176e-16
  92    -0.013647471435825
  93    -0.018244137336045
  94    -3.0563583589369e-15
  95    -6.6892828336359e-15
  96    -6.2819305267878e-15
  97    2.3678540980341e-15
  98    -0.019316363677661
  99    -0.025822394531137
 100    -2.6273846033102e-15
 101    -2.4175351236917e-15
 102    -6.3122131148277e-15
 103    5.2541682164044e-16
 104    -0.00071681511780569
 105    -0.00095824882398793
 106    -0.012998424544814
 107    -0.017376482058459
 108    1.0231792592832e-15
 109    -0.005813072176521
 110    -0.0077709990185039
 111      5.0668414478e-16
 112    -0.011196408803342
 113    -0.014967521334576
 114    2.9205705372816e-16
 115    -1.0285639088407e-16
 116    -0.0042961544792405
 117    -0.0057431614863691
 118    4.5274328706501e-15
 119    -0.0019212986914849
 120    -0.0025684198978569
 121    2.9429837556048e-15
 122    -0.0064361959529687
 123    -0.0086039999013743
 124    2.9062493654381e-15
 125    -9.4852328868827e-16
 126    -1.3687402181038e-16
 127    2.0673165103212e-15
 128    1.5211290695884e-15
 129    -1.2694405575254e-15
 130    -0.00045899217506309
 131    -1.3507781524207e-15
 132    -0.00061358738264295
 133    -0.003367785369107
 134    -0.0045021042235695
 135    8.9728168718782e-16
 136    8.3932126467804e-16
 137    1.5250948850132e-15
 138    -0.00027440461954518
 139    -0.00020526754091634
 140    -7.3951826045063e-16
 Sym= A
 Ene=    -11.43879875
 Spin= Alpha
 Occup=    1.00000
   1    -6.9916633119415e-15
   2    -1.279195217292e-14
   3    -1.0403458440272e-14
   4    -8.2525694296112e-15
   5    -1.473131070158e-14
   6      0.34029073891204
   7     -0.25455345208353
   8    2.9508264589753e-15
   9      0.25221982395968
  10     -0.18867227206389
  11    2.4822309320096e-16
  12    0.00094764872385934
  13    -0.0007088857451496
  14    9.2208475785868e-15
  15     0.001463339438857
  16    -0.0010946466157791
  17    2.5566992608941e-15
  18    2.1218090550023e-15
  19    2.2088273652592e-15
  20    2.4491271758883e-15
  21    5.3371312369108e-16
  22    -0.018244137336048
  23     0.013647471435829
  24    2.5726373284609e-15
  25    4.3831745095684e-15
  26    -1.5000076255313e-15
  27    -9.6721242335808e-16
  28    -0.025822394531143
  29     0.019316363677631
  30    3.211216739036e-15
  31    3.0575597510731e-15
  32    2.2972658051135e-15
  33    -2.0054588287354e-17
  34    -0.00095824882398927
  35    0.0007168151178056
  36     0.017376482058458
  37    -0.012998424544815
  38    9.3447598123801e-16
  39    0.0077709990185033
  40    -0.0058130721765213
  41    -2.6608569979582e-16
  42     0.014967521334578
  43    -0.011196408803341
  44    6.0431657013558e-16
  45    4.0843184855831e-16
  46    0.0057431614863551
  47    -0.0042961544792507
  48    -3.0380503902222e-15
  49    0.0025684198978495
  50    -0.0019212986914889
  51    -2.204128566124e-15
  52    0.0086039999013698
  53    -0.0064361959529716
  54    -2.8362103475716e-16
  55    -7.4532358030882e-16
  56    1.2947235467645e-16
  57    1.8997308978502e-16
  58    2.7532579685149e-15
  59    3.7126862965441e-16
  60    -0.00061358738264286
  61    3.7854470811404e-16
  62    0.00045899217507474
  63    -0.004502104223571
  64     0.003367785369117
  65    8.628279896319e-16
  66    8.9239699965072e-16
  67    1.1777612921987e-15
  68    0.0002052675409215
  69    -0.00027440461954512
  70    2.0244975721234e-16
  71    1.2688730438589e-14
  72    2.004904660843e-14
  73    1.3556472453925e-14
  74    9.8357817872126e-15
  75    1.2846105432611e-14
  76       -0.340290738912
  77      0.25455345208351
  78    -8.6306034774538e-16
  79     -0.25221982395965
  80      0.18867227206388
  81    4.5200289751717e-16
  82    -0.00094764872388938
  83    0.00070888574512205
  84    -3.6294347919429e-15
  85    -0.0014633394388548
  86    0.0010946466157813
  87    5.3053271086162e-15
  88    -2.4859859111045e-15
  89    -2.1397649801288e-17
  90    -1.6155472774152e-15
  91    1.1202712529837e-15
  92    -0.018244137336048
  93     0.013647471435817
  94    -3.1579554832287e-15
  95    -1.5491439926984e-14
  96    -1.1602074604204e-14
  97    -5.3664410979142e-15
  98    -0.025822394531131
  99     0.019316363677681
 100    -2.5018731000236e-15
 101    -3.4358424002819e-15
 102    9.7006978501961e-16
 103    3.0588936255344e-16
 104    -0.00095824882398952
 105    0.00071681511780303
 106    -0.017376482058452
 107     0.012998424544819
 108    3.2326132610671e-16
 109    -0.0077709990185006
 110    0.0058130721765231
 111    2.9216088894684e-16
 112    -0.014967521334573
 113     0.011196408803342
 114    -3.7982263510408e-17
 115    1.4923900378287e-17
 116    -0.0057431614863384
 117    0.0042961544792647
 118    2.9651275728297e-15
 119    -0.0025684198978425
 120    0.0019212986914953
 121    2.533499385856e-15
 122    -0.0086039999013606
 123    0.0064361959529776
 124    1.7029283619483e-18
 125    1.4883603161741e-16
 126    -1.9639386598787e-15
 127    7.0949529630961e-15
 128    3.6887379937518e-15
 129    2.2356445131901e-15
 130    -0.00061358738264621
 131    2.2278412740196e-15
 132    0.00045899217505309
 133    -0.0045021042235736
 134    0.0033677853690959
 135    2.9791450160325e-15
 136     8.98437266265e-18
 137    3.8691011657434e-15
 138    0.00020526754091183
 139    -0.00027440461954663
 140    1.0076112972137e-15
 Sym= A
 Ene=    -11.01314304
 Spin= Alpha
 Occup=    1.00000
   1     0.059014042651218
   2      0.41547817176898
   3      0.57361089598885
   4      0.48516451711948
   5     0.056346265596892
   6    -2.8763122679335e-15
   7    8.4271119030157e-16
   8      0.29950493300917
   9    -2.1778760131462e-15
  10    7.0809417571116e-16
  11      0.19119909042903
  12    -3.4993344568666e-16
  13    1.4886828147204e-16
  14     0.012302367965121
  15    3.0811971748745e-16
  16    -4.5098438900988e-16
  17    -0.0027680037640778
  18    0.0041693772278164
  19    0.0041693772278211
  20    -0.026761830698958
  21    -7.0973859262873e-17
  22    -2.198183713157e-16
  23    -2.0761646148836e-17
  24     -0.27225699703012
  25     -0.27225699703014
  26     -0.27676274713025
  27    2.4057490181127e-16
  28    1.723450752003e-16
  29    -1.3655752923479e-17
  30    -0.056977244920727
  31    -0.056977244920725
  32    -0.048807729293481
  33    9.4227125246037e-17
  34    4.2173737827597e-17
  35    -2.0034609954797e-17
  36    -1.5014028241044e-16
  37    5.5029297239594e-17
  38     0.020931152476944
  39    -6.5226881228388e-17
  40    2.4680667723604e-17
  41    0.0030585460181374
  42    -1.2897019214644e-16
  43    5.0758288140569e-17
  44    0.0030585460181375
  45    -7.3740641911712e-18
  46    -6.2931240664068e-17
  47    1.4877324532984e-16
  48    -0.010038087741108
  49    -2.1974741929558e-17
  50    6.6431456976883e-17
  51    -0.0034579506767389
  52    -9.0253850670112e-17
  53    1.0648461686001e-16
  54    -0.0034579506767387
  55    -2.3389149250935e-17
  56     0.086337736726377
  57     0.086337736726391
  58     0.066577596071621
  59    4.2026861497962e-17
  60    9.3583281777049e-17
  61    4.1719076867235e-17
  62    -4.3153104372515e-18
  63    1.3996082319345e-16
  64    -2.8774554633955e-17
  65     0.050554202141693
  66     0.046525366340575
  67     0.046525366340579
  68    -2.2589767037831e-18
  69    4.0548767137761e-17
  70    2.7326805993009e-17
  71     0.059014042651567
  72      0.41547817177044
  73      0.57361089599082
  74      0.48516451712139
  75     0.056346265596893
  76    2.8704316628324e-16
  77    -1.0876337438148e-17
  78     -0.29950493301004
  79    1.4796870300387e-16
  80    2.8988413184465e-17
  81     -0.19119909043019
  82    6.8156799387788e-17
  83    -6.1712227428396e-17
  84    -0.012302367962361
  85    2.8337539617979e-17
  86    -7.862987203342e-18
  87    0.0027680037640763
  88    0.0041693772277836
  89    0.0041693772277457
  90    -0.026761830698985
  91     -2.6499250505e-18
  92    6.1358764132943e-18
  93    3.8517280132905e-18
  94     -0.27225699703097
  95      -0.2722569970308
  96     -0.27676274713158
  97    2.3447246034238e-17
  98    -4.8584410392834e-17
  99    1.7685285215121e-17
 100    -0.056977244920738
 101    -0.056977244920747
 102    -0.048807729292972
 103    2.6084045260436e-18
 104    -1.6641358140262e-17
 105    -1.2759892353893e-17
 106    3.262567438996e-17
 107    -9.8947391436489e-18
 108    -0.020931152477045
 109    1.6092921576756e-17
 110    -4.2280523309535e-18
 111    -0.0030585460181674
 112    -6.8050895826403e-18
 113    6.8920657302193e-18
 114    -0.0030585460181674
 115    3.142833893323e-18
 116    -1.0993295111359e-17
 117    1.3789142632442e-17
 118     0.010038087740188
 119    -4.6642942319131e-18
 120    6.018727710557e-18
 121     0.003457950676274
 122    -8.3888934682594e-17
 123    2.2918169349854e-17
 124    0.0034579506762744
 125    9.7900437172932e-18
 126     0.086337736726657
 127     0.086337736726545
 128     0.066577596072174
 129    -8.6958565651053e-18
 130    1.2493032031722e-17
 131    -9.857209181588e-18
 132    -3.2641749027802e-18
 133    -3.2689117822727e-17
 134    1.4347994663778e-17
 135      0.05055420214182
 136     0.046525366340803
 137      0.04652536634077
 138    -1.3888654475887e-18
 139    9.0829583112986e-18
 140    5.3051529830729e-18
 Sym= A
 Ene=     -11.0067461
 Spin= Alpha
 Occup=    0.00000
   1     0.061699333572995
   2      0.42010359870822
   3      0.57645294924894
   4      0.50085682301548
   5      0.14174733536544
   6    7.1035700313833e-16
   7    -3.4806664463997e-15
   8      0.29881809015776
   9    1.2910627634618e-15
  10    -2.4089983972553e-15
  11      0.21476802612879
  12    -8.3429613111584e-16
  13    -2.2471479968633e-16
  14     -0.09804815370443
  15    6.4263050385314e-17
  16    1.7629177561663e-16
  17    -0.023444052443968
  18    0.0018815552533273
  19    0.0018815552533306
  20    -0.026007419282481
  21    1.0149863185925e-17
  22    8.9716855848702e-17
  23    2.0360141194174e-16
  24     -0.27015675360428
  25     -0.27015675360429
  26       -0.278469982353
  27    -9.6827086483125e-17
  28    4.5570815412438e-16
  29    2.4911791827924e-16
  30    -0.067414607210771
  31    -0.067414607210771
  32    -0.038323740586197
  33    -9.4494230916582e-17
  34    -1.3451654391939e-17
  35    3.7234708382314e-17
  36    7.8931910450878e-17
  37    -1.6650977030839e-16
  38     0.020953953557016
  39    3.4300386744818e-17
  40    -7.4671935101556e-17
  41    0.0027875890925821
  42    3.5484287292031e-17
  43    -1.7620398947097e-16
  44    0.0027875890925821
  45    7.1012593782952e-18
  46    2.7388832298457e-16
  47    -6.7947349335594e-17
  48     0.033998634869262
  49    1.2299898366786e-16
  50    -3.0307498491569e-17
  51     0.011521907970652
  52    1.1799803876251e-16
  53    -1.3988739230637e-16
  54     0.011521907970652
  55    2.3126686871712e-17
  56     0.083434896623833
  57     0.083434896623844
  58     0.062584790035487
  59    -4.2854163463126e-17
  60    -8.8575486398609e-17
  61    -4.2556008109805e-17
  62    1.3905087337526e-17
  63    -8.9048778360717e-17
  64    8.8835770484371e-17
  65     0.048854473020994
  66     0.046696200265785
  67     0.046696200265788
  68    5.8596425250682e-18
  69    -3.8133123305438e-17
  70    -2.7535844696977e-17
  71    -0.061699333573068
  72     -0.42010359870735
  73     -0.57645294924752
  74     -0.50085682301429
  75     -0.14174733536529
  76    5.9418804495855e-17
  77    4.0587124977971e-16
  78      0.29881809015689
  79    6.2209530640461e-17
  80     2.42501048303e-16
  81      0.21476802612821
  82    -3.9024601019168e-17
  83    1.7942693222889e-17
  84    -0.098048153704305
  85    -7.9952904205592e-18
  86    9.9278823304832e-18
  87    -0.023444052443966
  88    -0.0018815552532593
  89    -0.0018815552532225
  90     0.026007419282606
  91    2.6769265146001e-18
  92    -6.8660986921098e-19
  93    -8.7041829670943e-19
  94      0.27015675360373