[Molden Format]
made by pyscf v[2.14.0]
[Atoms] (AU)
O   1   8     0.00000000000000     0.00000000000000     1.14092214800000
O   2   8     0.00000000000000     0.00000000000000    -1.14092214800000
[GTO]
1 0
 s    9 1.00
                 61420  9.0738926792129e-05
                  9199  0.00070373078778785
                  2091  0.0036940825307373
                 590.9   0.015342944310251
                 192.3    0.05285340843582
                 69.32    0.14711905484927
                 26.97    0.30776425905235
                  11.1    0.40177986931198
                 4.682    0.21876147039285
 s    9 1.00
                 61420  -5.6106385876036e-05
                  9199  -0.00044604576771449
                  2091  -0.0023256096945617
                 590.9  -0.0098410600826567
                 192.3  -0.034101461335455
                 69.32   -0.10172368291255
                 26.97    -0.2328190588312
                  11.1   -0.42666101139432
                 4.682   -0.32354027947345
 s    1 1.00
                 1.428                   1
 s    1 1.00
                0.5547                   1
 s    1 1.00
                0.2067                   1
 p    3 1.00
                 63.42   0.031327502519451
                 14.66    0.21665424847957
                 4.459    0.83524284223889
 p    1 1.00
                 1.531                   1
 p    1 1.00
                0.5302                   1
 p    1 1.00
                 0.175                   1
 d    1 1.00
                 3.775                   1
 d    1 1.00
                   1.3                   1
 d    1 1.00
                 0.444                   1
 f    1 1.00
                 2.666                   1
 f    1 1.00
                 0.859                   1
 g    1 1.00
                 1.846                   1

2 0
 s    9 1.00
                 61420  9.0738926792129e-05
                  9199  0.00070373078778785
                  2091  0.0036940825307373
                 590.9   0.015342944310251
                 192.3    0.05285340843582
                 69.32    0.14711905484927
                 26.97    0.30776425905235
                  11.1    0.40177986931198
                 4.682    0.21876147039285
 s    9 1.00
                 61420  -5.6106385876036e-05
                  9199  -0.00044604576771449
                  2091  -0.0023256096945617
                 590.9  -0.0098410600826567
                 192.3  -0.034101461335455
                 69.32   -0.10172368291255
                 26.97    -0.2328190588312
                  11.1   -0.42666101139432
                 4.682   -0.32354027947345
 s    1 1.00
                 1.428                   1
 s    1 1.00
                0.5547                   1
 s    1 1.00
                0.2067                   1
 p    3 1.00
                 63.42   0.031327502519451
                 14.66    0.21665424847957
                 4.459    0.83524284223889
 p    1 1.00
                 1.531                   1
 p    1 1.00
                0.5302                   1
 p    1 1.00
                 0.175                   1
 d    1 1.00
                 3.775                   1
 d    1 1.00
                   1.3                   1
 d    1 1.00
                 0.444                   1
 f    1 1.00
                 2.666                   1
 f    1 1.00
                 0.859                   1
 g    1 1.00
                 1.846                   1

[5d]
[7f]
[9g]

[MO]
 Sym= A
 Ene=    -11.80491533
 Spin= Alpha
 Occup=    2.00000
   1      -0.1010852208834
   2      0.16891526793873
   3      0.59824472795686
   4    -0.082553086614995
   5    -0.071263776371108
   6    7.1984360007778e-16
   7    1.4957930854743e-15
   8     -0.30630750689662
   9    1.4562885598152e-15
  10    1.1858833662592e-15
  11     -0.33048225611999
  12    -8.7466601080665e-17
  13    5.1838662641203e-16
  14     0.094394048341448
  15    -8.6497289289674e-17
  16    5.2668216236787e-19
  17     0.026073047115493
  18     0.021784694585224
  19    -5.4403158060769e-17
  20    -8.2186001714785e-17
  21    -5.9739724378468e-17
  22    -2.4826112234611e-19
  23     0.025401184850504
  24    -1.3745667041461e-16
  25    -1.7369584363735e-16
  26    -4.7525753457244e-17
  27    -3.0775409172513e-19
  28    -0.046013029936153
  29    -3.883440316206e-17
  30    -3.6081006953065e-17
  31    4.3163457252512e-17
  32    3.3264928306894e-20
  33    -0.0063250383626958
  34    2.1551757499822e-17
  35    3.6790336958356e-17
  36    1.0962936611741e-17
  37    2.0748400121568e-20
  38    6.313703658826e-31
  39    -7.4855017325573e-31
  40    0.0092078510588973
  41    5.007004765494e-17
  42    3.7555823086086e-17
  43    -2.4856775334095e-17
  44    1.5006385805211e-20
  45    -3.6070668575821e-31
  46    4.355131784311e-31
  47    0.0014805304743735
  48    -1.5933670375549e-17
  49    -2.0161164005193e-17
  50    -2.1915196028593e-17
  51    -8.0717607455481e-21
  52    1.1038240719159e-32
  53    -2.0513508334453e-32
  54    -4.571036064572e-17
  55    -8.5508949851274e-36
  56      0.10108522088341
  57     -0.16891526793872
  58     -0.59824472795685
  59     0.082553086614999
  60     0.071263776371106
  61    1.2355722790044e-16
  62    4.6964739889518e-16
  63     -0.30630750689662
  64    1.2311246048965e-16
  65    4.2926095060851e-16
  66     -0.33048225611998
  67    -2.3292434616137e-17
  68    4.8783177234857e-17
  69     0.094394048341446
  70    -3.1279733778475e-18
  71    2.217256115507e-18
  72     0.026073047115492
  73    -0.021784694585224
  74    1.0679528787219e-17
  75    3.4101635237604e-17
  76    6.0545034936218e-17
  77    -6.7070139164962e-22
  78    -0.025401184850503
  79    3.2663515357387e-17
  80    9.7394222117281e-17
  81    4.6971751081309e-17
  82    -3.0416188304023e-22
  83      0.04601302993615
  84    -2.8503764211587e-17
  85    2.0290493101682e-17
  86    -4.4967904507675e-17
  87    -4.6193346660468e-21
  88    -0.0063250383626942
  89    1.1644408351285e-17
  90    2.0305799679556e-17
  91    2.5438073775787e-17
  92    -1.0236267772504e-21
  93    7.2997751290765e-32
  94    -2.6633698233424e-31
  95    0.0092078510588936
  96    4.5242464707548e-18
  97    2.8862188955634e-17
  98    -2.8202163108026e-17
  99    -2.1720152293218e-22
 100    -2.969765206884e-32
 101    1.4319223597009e-31
 102    -0.0014805304743752
 103    1.0326425448961e-17
 104    1.3600958125242e-17
 105    2.5408389225307e-17
 106    3.3902210514295e-22
 107    1.159524073666e-32
 108    -1.7763958192466e-32
 109    3.6893829775683e-17
 110    1.840462487901e-37
 Sym= A
 Ene=    -11.52802218
 Spin= Alpha
 Occup=    2.00000
   1    1.0977315222673e-15
   2    3.6865831967048e-16
   3    -1.1855459904619e-15
   4    -9.6398619637182e-16
   5    -9.2992259198555e-16
   6      0.27521779358307
   7      0.28580044974866
   8    1.2615083760775e-16
   9      0.24517214009152
  10      0.25459948280143
  11    8.1237183033561e-16
  12     0.013782377455188
  13     0.014312336509993
  14    6.9964598023901e-16
  15    0.00026323381651178
  16    0.00027335566559284
  17    2.8154936363239e-16
  18    -3.5555964276176e-17
  19    -0.015675358640821
  20     -0.01627810648139
  21    -1.0658443515307e-16
  22    -3.3242113896774e-17
  23    2.364067017066e-17
  24    -0.037054544817943
  25    -0.038479363693481
  26    2.239113272204e-16
  27    -1.1881614821643e-16
  28    -9.9133384864028e-17
  29    -0.002204937277111
  30    -0.0022897213776089
  31    -4.4880686538641e-16
  32    2.0690942629225e-16
  33    1.1624388305684e-16
  34    0.0075882855595166
  35    0.0078800698076112
  36    2.9632320884437e-17
  37    -4.6959351068613e-17
  38    1.5969062847279e-16
  39    -3.4922959282857e-16
  40    -8.2969286360912e-18
  41    0.0084906621171244
  42    0.0088171444881725
  43    4.1486140903325e-16
  44    -1.8654298916876e-19
  45    -9.3676141051165e-17
  46    2.2371619245819e-17
  47    -2.7252131410732e-18
  48    -0.0042935545620749
  49    -0.0044586500345266
  50    -2.5716394236024e-18
  51    -3.0761251968269e-18
  52    2.304265201111e-18
  53    3.5796099582792e-18
  54    -5.3672702932632e-18
  55    1.0583094460781e-28
  56    -2.3867552938886e-15
  57    -1.4449721504218e-15
  58    1.6895346141215e-15
  59    4.2329826525529e-16
  60    1.073281880523e-15
  61        0.275217793583
  62      0.28580044974865
  63    1.0920006638571e-15
  64      0.24517214009146
  65      0.25459948280142
  66    7.9894397841744e-16
  67     0.013782377455186
  68     0.014312336509994
  69    5.8893499855066e-16
  70    0.00026323381650993
  71    0.00027335566559268
  72    4.7510377005707e-16
  73    8.617796690635e-18
  74     0.015675358640817
  75     0.016278106481389
  76    -2.9885126400437e-17
  77    5.8780975489231e-18
  78     1.91381829974e-16
  79     0.037054544817937
  80     0.038479363693482
  81    -6.6847883818152e-17
  82    1.9474747912602e-17
  83    3.3879836532103e-16
  84    0.0022049372771092
  85    0.0022897213776105
  86    2.5076070497499e-16
  87    -7.1212317976423e-18
  88    -9.1664453137987e-17
  89    0.0075882855595155
  90    0.0078800698076109
  91    7.1491195668368e-18
  92    -1.4891097018965e-18
  93    1.6111560523928e-16
  94    -1.6128646606132e-16
  95    1.654521881187e-16
  96    0.0084906621171228
  97    0.0088171444881738
  98    3.6404701026491e-16
  99    -1.5860630040716e-17
 100    -9.7022551700335e-17
 101    7.076109282935e-17
 102    9.3126432746725e-17
 103    0.0042935545620747
 104    0.0044586500345272
 105    -1.4784017313638e-17
 106    -5.4952798730504e-19
 107    -9.6266142377745e-19
 108    2.1842662956562e-18
 109    -1.8432053824148e-18
 110    6.2839013434545e-31
 Sym= A
 Ene=    -11.52802218
 Spin= Alpha
 Occup=    2.00000
   1    2.8505129257096e-16
   2    3.4139834420845e-16
   3    2.0021879653393e-16
   4    -6.0303956714788e-16
   5    -5.185972346901e-16
   6      0.28580044974866
   7     -0.27521779358304
   8    -2.8599837297291e-16
   9      0.25459948280142
  10     -0.24517214009149
  11    -1.0110395567329e-16
  12     0.014312336509994
  13    -0.013782377455187
  14    4.9992951029558e-16
  15    0.00027335566559278
  16    -0.0002632338165106
  17    2.6788997190758e-16
  18    3.0664850879147e-17
  19     -0.01627810648139
  20      0.01567535864082
  21    -4.9453629001965e-16
  22    5.3252958326813e-16
  23    -2.4069048757658e-16
  24    -0.038479363693482
  25      0.03705454481794
  26    3.4279785113039e-16
  27    -3.8957107314132e-17
  28    -3.0454107416627e-16
  29    -0.0022897213776103
  30    0.0022049372771093
  31    -1.6522218686426e-16
  32    -1.873913999139e-17
  33    6.7062715035842e-17
  34     0.007880069807611
  35    -0.0075882855595162
  36    -2.8260834202965e-16
  37    -1.3693492859893e-17
  38    1.6630781012716e-16
  39    2.9253388079552e-16
  40    -8.5242652675876e-17
  41    0.0088171444881735
  42    -0.0084906621171233
  43    -1.3737451516539e-16
  44    -1.5095150247636e-16
  45    1.8512240259953e-17
  46    -4.6566213877169e-17
  47    1.2661093967652e-17
  48    -0.0044586500345268
  49    0.0042935545620749
  50    -2.2174498988856e-17
  51    9.4701459075004e-18
  52    -5.5322658962195e-17
  53    7.0824209204024e-17
  54    9.6967707572759e-17
  55    7.0684322600472e-16
  56    -2.1958426534689e-16
  57    -1.8348593361692e-16
  58    1.4411600351706e-16
  59    1.6598444006535e-16
  60    7.4171457771916e-16
  61      0.28580044974866
  62     -0.27521779358302
  63    -4.7905125737613e-16
  64      0.25459948280142
  65     -0.24517214009148
  66    -6.6935785985846e-16
  67     0.014312336509993
  68    -0.013782377455188
  69    4.4025878827651e-16
  70    0.00027335566559257
  71    -0.0002632338165108
  72    4.3264919595392e-16
  73    1.9476396692252e-16
  74     0.016278106481389
  75    -0.015675358640819
  76    1.0928240582764e-16
  77    -7.8022832131462e-17
  78    -2.8054199511175e-16
  79     0.038479363693482
  80    -0.037054544817939
  81    -2.0562439972825e-16
  82    -6.7314743498597e-17
  83    5.4024697997127e-16
  84    0.0022897213776089
  85    -0.0022049372771104
  86    9.445896716623e-17
  87    -1.5210375144793e-16
  88    -1.4003593866144e-16
  89    0.0078800698076109
  90    -0.007588285559516
  91    2.6059044386292e-16
  92    -1.8993960117194e-16
  93    1.679407118601e-16
  94    1.5586105336387e-16
  95    2.4195473878407e-16
  96    0.0088171444881728
  97    -0.0084906621171235
  98    -1.3696844511331e-16
  99    1.1833029510672e-16
 100    -9.9675017539627e-17
 101    -6.7729416485523e-17
 102    3.4551256207481e-17
 103    0.0044586500345268
 104    -0.0042935545620749
 105    -1.1671288668306e-16
 106    -4.8868396966969e-17
 107    2.2115837303341e-18
 108    1.4887097158928e-19
 109    6.4168281497908e-17
 110    -2.6213248298818e-17
 Sym= A
 Ene=    -11.43833756
 Spin= Alpha
 Occup=    2.00000
   1    -8.8919827994775e-16
   2    -4.0868739047467e-16
   3    5.840579921571e-16
   4    1.003625481939e-15
   5    9.7410538427425e-16
   6     -0.37070301123947
   7     -0.18359550768135
   8    2.432071659141e-16
   9     -0.32344918818554
  10     -0.16019243468105
  11    -2.6124661070719e-16
  12    -0.011095172714489
  13    -0.005495029189318
  14    -1.2053444424803e-15
  15    -0.0015530246506379
  16    -0.00076915574066193
  17    -3.6934649678502e-16
  18    -6.1919023116119e-17
  19     0.019031987952475
  20     0.009425840590388
  21    1.4626709172697e-17
  22    -1.0650774910632e-17
  23    -1.4387322437395e-18
  24      0.03518608056535
  25     0.017426365928652
  26    -4.3286981676826e-17
  27    2.9139412722763e-17
  28    4.9567753571102e-16
  29    -0.00041933720151732
  30    -0.0002076822255772
  31    -6.1653664373172e-18
  32    2.8197366674439e-17
  33    -5.2694425156162e-17
  34    -0.0059729052467834
  35    -0.0029581593293489
  36    -1.6937999767424e-17
  37    7.9681758367286e-17
  38    -2.1572471419599e-16
  39    5.0328019403896e-16
  40    -1.7713691429776e-16
  41    -0.0045583771825241
  42     -0.00225759583185
  43    -6.9070289719214e-17
  44    -1.9158630169951e-20
  45     1.44131604977e-16
  46    -1.2182981944955e-16
  47    4.6263562491389e-17
  48    0.0022145917021325
  49    0.0010968054629511
  50    4.466332291324e-18
  51    -1.0460644598434e-18
  52    -7.819099365805e-18
  53    1.4697025107259e-17
  54    -5.3735106627813e-18
  55    2.1223809428996e-28
  56    2.124312111583e-16
  57    -5.7319314149262e-16
  58    -1.3992048993521e-15
  59    -9.4754814318553e-16
  60    -7.6281852408257e-16
  61      0.37070301123951
  62      0.18359550768141
  63    -4.683145085884e-16
  64      0.32344918818558
  65      0.16019243468109
  66    -5.5441852595178e-16
  67      0.01109517271449
  68    0.0054950291893206
  69    -7.0892684691943e-16
  70     0.001553024650638
  71    0.00076915574066187
  72    -2.648581463577e-16
  73    1.1460149429967e-16
  74     0.019031987952477
  75    0.0094258405903908
  76    1.3034016416556e-17
  77    -1.7033743596183e-19
  78    -1.6959105340688e-16
  79     0.035186080565355
  80     0.017426365928659
  81    5.6056992734364e-18
  82    -7.060550537476e-18
  83    -3.1060654293427e-16
  84    -0.0004193372015177
  85    -0.00020768222557685
  86    -6.9767756121162e-17
  87    1.9322871148788e-17
  88    2.3153130772154e-17
  89    0.0059729052467847
  90    0.0029581593293503
  91    -2.2710601051409e-17
  92    1.0074835341232e-19
  93    2.1409679518386e-16
  94    -1.0246210000213e-16
  95    -1.9297987904567e-16
  96    0.0045583771825251
  97    0.0022575958318516
  98    -8.0955810663603e-17
  99    1.3837732532526e-17
 100    -1.3982036381677e-16
 101    4.9987352042018e-17
 102    -8.6378140518701e-18
 103    0.0022145917021331
 104    0.0010968054629519
 105    -1.4784017313638e-17
 106    9.7092301205292e-19
 107    -9.0438811677061e-18
 108    6.7329480453909e-18
 109    4.5538015330247e-18
 110    3.0601820174983e-31
 Sym= A
 Ene=    -11.43833756
 Spin= Alpha
 Occup=    1.00000
   1    -1.8226146839081e-16
   2    -4.0740929292501e-16
   3    -1.1096312808756e-15
   4    1.3212038205956e-15
   5    8.8121149975636e-16
   6     -0.18359550768137
   7       0.3707030112395
   8    2.2633113197785e-16
   9     -0.16019243468106
  10      0.32344918818556
  11    2.5822196166646e-16
  12    -0.0054950291893183
  13      0.01109517271449
  14    -1.0744351594356e-15
  15    -0.00076915574066219
  16    0.0015530246506383
  17    -2.8000976143769e-16
  18    2.3097220215477e-16
  19    0.0094258405903889
  20    -0.019031987952476
  21    -1.0232413856952e-16
  22    1.4270162460761e-15
  23    -5.8031842387388e-16
  24     0.017426365928653
  25    -0.035186080565352
  26    -2.7483080104005e-16
  27    -1.1874839795875e-15
  28    3.2612448582124e-16
  29    -0.00020768222557704
  30    0.00041933720151651
  31    -1.2512902705106e-16
  32    9.6672596105696e-16
  33    -4.5402221021104e-17
  34    -0.0029581593293494
  35    0.0059729052467841
  36    1.0836757304143e-16
  37    5.7460834521453e-16
  38    -5.5755606282705e-17
  39    -1.0481427814079e-16
  40    -8.9503782888898e-17
  41    -0.0022575958318503
  42    0.0045583771825249
  43    2.0359158319737e-16
  44    -4.4328995834947e-16
  45    -1.2154258180989e-16
  46    1.6804539786731e-16
  47    -4.4507376484445e-17
  48    0.0010968054629515
  49    -0.0022145917021327
  50    9.8965359758556e-17
  51    -1.6295318426219e-17
  52    3.1441975498424e-17
  53    -4.1210399165654e-17
  54    5.4013367727749e-17
  55    1.716929022799e-15
  56    1.4189274607359e-16
  57    1.5630346505459e-16
  58    6.259800452122e-16
  59    -1.5111680309852e-15
  60    -8.4922911258971e-16
  61      0.18359550768139
  62     -0.37070301123949
  63    8.0738437920662e-16
  64      0.16019243468108
  65     -0.32344918818556
  66    6.8155877317708e-16
  67    0.0054950291893196
  68    -0.011095172714491
  69    -6.9864581030323e-16
  70    0.0007691557406618
  71    -0.0015530246506371
  72    -5.2688501573614e-16
  73    5.2507489491977e-16
  74    0.0094258405903903
  75    -0.019031987952476
  76    6.5976714649357e-17
  77    -1.6606197836845e-16
  78    7.8378005581276e-17
  79     0.017426365928658
  80    -0.035186080565352
  81    5.4448761238426e-17
  82    -9.9129052534976e-17
  83    -3.0153825247492e-17
  84    -0.00020768222557748
  85    0.00041933720151802
  86    1.9529878354195e-16
  87    -3.8299390945164e-16
  88    2.3682752897751e-16
  89    0.0029581593293498
  90    -0.005972905246784
  91    -1.4337371903153e-16
  92    -5.6276381173855e-16
  93    1.0632178305272e-16
  94    2.0607032613522e-16
  95    -1.1312994822507e-16
  96    0.0022575958318506
  97    -0.0045583771825234
  98    2.3902304559675e-16
  99    2.1609536325543e-16
 100    -6.7947424126986e-17
 101    -9.2438607504123e-17
 102    8.6378140518701e-17
 103    0.0010968054629515
 104    -0.0022145917021324
 105    1.7902520965734e-17
 106    -1.7994109668575e-16
 107    5.315264462919e-19
 108    -6.6177484237792e-18
 109    -2.1120626381034e-17
 110    -7.454442209578e-17
 Sym= A
 Ene=    -10.99350511
 Spin= Alpha
 Occup=    1.00000
   1     -0.12010586340714
   2      0.16672203364718
   3      0.60895731987874
   4    0.0097255050299878
   5     0.016437083099484
   6    -5.2277400233389e-17
   7    3.9871354955283e-16
   8      0.29659702242663
   9    -1.5009900191623e-16
  10    4.0581712843364e-16
  11      0.20743347742575
  12    1.0307044598415e-16
  13    1.0893103885827e-16
  14    -0.0025465580056886
  15    -7.2779232020667e-17
  16    -7.1424582690205e-18
  17    0.0023527303499303
  18     -0.01550816933138
  19    -1.3253837645749e-17
  20    -7.1902782707145e-17
  21    -8.0440461495558e-17
  22    -3.5192980350118e-17
  23    -0.017654557468795
  24    2.0638177040703e-17
  25    -5.188871083301e-17
  26    -9.256785220074e-18
  27    5.7934026176354e-17
  28    -0.002096255362675
  29    1.6522740304464e-17
  30    -1.7416155637001e-17
  31    -7.994376390375e-20
  32    -4.7206576409952e-18
  33    0.0026358694593322
  34    -2.3043599231533e-18
  35    8.2297520728748e-18
  36    6.0551360837442e-18
  37    -3.8198989106262e-18
  38    -6.9980254495499e-32
  39    -2.9123820105227e-31
  40    0.0089470118185861
  41    -1.3217914624566e-17
  42    7.4935497148136e-18
  43    -4.7686906331225e-18
  44    -3.3416090860295e-18
  45    2.5195463819058e-32
  46    -2.3934297346625e-29
  47    -0.0049863926501738
  48     2.90869877827e-18
  49    -2.2187338559584e-18
  50    -3.0031798955204e-17
  51    1.5904166632856e-18
  52    3.0011257242809e-33
  53    2.7593114771418e-30
  54    -3.5902735810352e-17
  55    1.693759389351e-33
  56     -0.12010586340734
  57      0.16672203364752
  58      0.60895731988004
  59    0.0097255050295769
  60      0.01643708309918
  61    1.6720705040904e-17
  62    -1.3455976846114e-16
  63     -0.29659702242716
  64    1.4891941523605e-17
  65    -1.2052552736246e-16
  66     -0.20743347742609
  67    9.8177949664147e-18
  68    3.2635754992987e-17
  69    0.0025465580052356
  70    -5.869300033395e-18
  71    -1.7263336423207e-17
  72    -0.0023527303500407
  73     -0.01550816933139
  74    1.2751465157774e-18
  75    -7.3936281136957e-18
  76    -8.8544852221415e-17
  77    1.2088565508358e-19
  78    -0.017654557468909
  79    4.5348283174096e-18
  80    2.0288198930272e-17
  81    -1.1561169432011e-17
  82    3.1105152721562e-19
  83    -0.0020962553628551
  84    1.7992138240834e-17
  85    5.5618231559927e-19
  86    -7.4541157336142e-18
  87    8.0512681777435e-19
  88    -0.0026358694593404
  89    -5.9605220941231e-19
  90    1.6192070293938e-18
  91    3.0811930346038e-18
  92    2.310910879097e-19
  93    9.7770983786185e-33
  94    -7.7664183590193e-31
  95    -0.0089470118186625
  96    7.7350239949606e-18
  97    2.2045994812349e-17
  98    -6.9215746434221e-18
  99    2.3961748012272e-19
 100    5.7398820636888e-34
 101    -1.4475555512719e-29
 102    -0.0049863926501864
 103    -2.7081504158784e-18
 104    3.0414428607168e-18
 105    -2.9342273159533e-17
 106    7.4341546109047e-20
 107    1.5651119881532e-33
 108    -2.5036377025301e-30
 109    -3.6419798675941e-17
 110    -1.4377281313785e-35
 Sym= A
 Ene=    -10.98905085
 Spin= Alpha
 Occup=    0.00000
   1      -0.1108838784898
   2      0.18545561550766
   3      0.69147462633019
   4     -0.17776070695925
   5    -0.078563821433364
   6    7.2410838533319e-16
   7    -1.3310535841408e-16
   8      0.29013608491142
   9    9.1255777734617e-16
  10    -2.0892240618943e-17
  11      0.19451222935657
  12    -1.2809753931646e-16
  13    -2.5378707921762e-16
  14      0.18047883352129
  15    7.9586854829443e-17
  16    -5.6797941300278e-17
  17     0.028776283422953
  18    -0.0074443958975066
  19    -6.4377173755983e-17
  20    -1.177177559357e-17
  21    -5.8819398950996e-17
  22    8.9990352485701e-17
  23    -0.053960058591424
  24    -1.1470141593905e-16
  25    5.6516601235686e-18
  26    -1.2716130016141e-16
  27    -5.6763073586091e-17
  28    -0.069210843773716
  29    -1.5253872812752e-17
  30    2.3457955610445e-17
  31    8.3166734934481e-17
  32    4.6400483371108e-18
  33    0.0053646787639245
  34    1.9466034727612e-17
  35    -2.6198179639922e-18
  36    6.610906747989e-18
  37    3.7617381661382e-18
  38    5.0585123349099e-31
  39    3.7127620722598e-31
  40     0.030946497401792
  41    2.5366126723543e-17
  42    4.6108926929025e-18
  43    4.3525162776264e-17
  44    3.2943558271805e-18
  45    -3.0375405639896e-31
  46    2.3777924150311e-29
  47    -0.0057996772872335
  48    -1.0244718961712e-17
  49    -8.3070190943299e-19
  50    -4.2913308130095e-17
  51    -1.566852838918e-18
  52    1.1194833027937e-32
  53    -2.7434772222195e-30
  54    -7.1264635067014e-17
  55    -1.6701186316538e-33
  56      0.11088387848959
  57     -0.18545561550735
  58     -0.69147462632908
  59      0.17776070695927
  60     0.078563821433393
  61    -1.32896250354e-16
  62    1.8480669981564e-16
  63      0.29013608491088
  64    -1.0772544534621e-16
  65    1.6910640932454e-16
  66      0.19451222935619
  67    8.3786362535549e-18
  68    -4.2953121970035e-17
  69      0.18047883352129
  70    3.4477987522523e-18
  71    1.4029846614327e-17
  72     0.028776283422949
  73    0.0074443958974785
  74    -4.8796370556055e-18
  75    8.7840502258942e-18
  76    5.3869391389164e-17
  77    -1.1907020126724e-19
  78     0.053960058591392
  79    6.5317898491164e-18
  80    -1.316386297277e-17
  81    1.2483722208377e-16
  82    -3.0801431653292e-19
  83      0.06921084377371
  84    -4.9583038958008e-18
  85    -1.3110195776094e-17
  86    -8.8963730000098e-17
  87    -7.9273427730494e-19
  88     0.005364678763921
  89    2.7716520360201e-18
  90    1.5101125027224e-18
  91    4.6684700673483e-18
  92    -2.2784947973844e-19
  93    -7.1205219859306e-32
  94    7.3822341841612e-31
  95     0.030946497401772
  96    3.4557395146433e-18
  97    -2.0795038626042e-17
  98    4.0691189090233e-17
  99    -2.3732439377875e-19
 100    4.8675170287724e-32
 101    1.4331449050852e-29
 102    0.0057996772872253
 103    5.9090414854659e-18
 104    1.4380518809348e-19
 105    4.7113052462531e-17
 106    -7.4050963911285e-20
 107    9.1383705955987e-33
 108    2.4777067295958e-30
 109    5.4489493773749e-17
 110    1.4044709527696e-35
 Sym= A
 Ene=    -8.028925196
 Spin= Alpha
 Occup=    0.00000
   1    3.6498504019207e-18
   2    7.3444354291222e-18
   3    -2.2966982267936e-16
   4    1.391237369754e-15
   5    -1.6347384212811e-15
   6      0.22818040109074
   7     -0.08469944478862
   8    7.6404849491806e-17
   9     0.085331840176615
  10    -0.031674760195012
  11    -7.2010575824969e-17
  12       -0.265273732596
  13     0.098468307358927
  14    -2.3230588548429e-16
  15     0.021582541435523
  16    -0.0080113334360795
  17    7.5645519295053e-16
  18    -6.0010551708448e-17
  19     0.044839188100077
  20    -0.016644086515296
  21    1.9947358807241e-16
  22    2.1102411920058e-16
  23    2.5273427258587e-16
  24      0.30814361397137
  25     -0.11438139688498
  26    -2.7985120743583e-16
  27    1.3958748824089e-15
  28    -3.9466150761802e-16
  29      0.12567278394887
  30    -0.046649120496887
  31    4.1026991343142e-17
  32    -1.8538987548768e-16
  33    -9.1973409370673e-17
  34    -0.037679229001724
  35     0.013986344844929
  36    3.1987781134687e-17
  37    -1.9617490787747e-16
  38    6.0621245070491e-17
  39    -9.4743409522844e-17
  40    2.5249846556006e-16
  41     -0.12459762113549
  42     0.046250025338338
  43    -1.0228684042083e-17
  44    -7.4695390702894e-17
  45    2.1065412467174e-16
  46    1.5335174882138e-16
  47    -1.3865916118911e-16
  48     0.033746826516223
  49    -0.012526656345763
  50    1.8687096040508e-17
  51     2.56097317858e-16
  52    -1.6388809917667e-17
  53    -1.2012753297013e-17
  54    -4.9598906371429e-17
  55    1.8139954983493e-16
  56    2.5575485000447e-16
  57    -1.3006990315768e-16
  58    -1.8951671623372e-15
  59    2.1892571007234e-15
  60    5.251018847075e-16
  61      0.22818040109074
  62    -0.084699444788621
  63    1.5088451454155e-16
  64     0.085331840176617
  65    -0.031674760195012
  66    4.9387974296762e-17
  67       -0.265273732596
  68     0.098468307358927
  69    -1.1352767618677e-16
  70     0.021582541435522
  71    -0.0080113334360789
  72    1.6413523880959e-16
  73    -7.165699779525e-17
  74    -0.044839188100077
  75     0.016644086515295
  76    1.9439761308063e-16
  77    -7.0015551385103e-18
  78    -8.3631041839991e-17
  79     -0.30814361397137
  80      0.11438139688498
  81    2.8044359673878e-16
  82    7.4138220779001e-17
  83    -6.2246064474277e-16
  84     -0.12567278394887
  85     0.046649120496887
  86    2.0982066158154e-16
  87    -8.9129903858358e-17
  88    8.135919249112e-17
  89    -0.037679229001724
  90     0.013986344844929
  91    -9.3368777383584e-17
  92    9.275227070007e-18
  93    5.9620170869381e-17
  94    2.5780606501582e-17
  95    -3.2080051892909e-16
  96     -0.12459762113549
  97     0.046250025338339
  98    4.0085386387431e-16
  99    4.3445231284457e-17
 100    -9.0907273777146e-18
 101    6.5952774072913e-19
 102    -1.727562810374e-16
 103    -0.033746826516223
 104     0.012526656345763
 105    -8.9397104693408e-17
 106    2.5240233843635e-17
 107    3.396815277476e-17
 108    3.7665395596365e-18
 109    -4.5294061676692e-17
 110    -1.5827390513371e-19
 Sym= A
 Ene=    -8.028925196
 Spin= Alpha
 Occup=    0.00000
   1    -1.8599042777932e-17
   2    -7.8779819946244e-16
   3    -3.1956080992226e-15
   4    2.1735647506641e-15
   5    7.4116291774708e-18
   6    -0.084699444788621
   7     -0.22818040109074
   8    1.175173597843e-15
   9    -0.031674760195011
  10    -0.085331840176616
  11      9.0464675403e-16
  12     0.098468307358926
  13        0.265273732596
  14    -2.5748699396751e-15
  15    -0.0080113334360795
  16    -0.021582541435522
  17    1.9193468242823e-16
  18    -3.2357281982186e-17
  19    -0.016644086515295
  20    -0.044839188100077
  21    -1.2413288777736e-16
  22    -4.5202618087835e-16
  23    1.145429187221e-15
  24     -0.11438139688498
  25     -0.30814361397137
  26    -5.2830077597114e-16
  27    -6.617413045168e-16
  28    1.3336466444707e-15
  29    -0.046649120496886
  30     -0.12567278394887
  31    2.7181070178485e-17
  32    -1.9471157112798e-16
  33    3.395910705065e-17
  34     0.013986344844929
  35     0.037679229001724
  36    1.1240880264274e-16
  37    3.5813430380289e-17
  38    -2.2957901488044e-17
  39    1.0207141833501e-16
  40    -4.052884469572e-16
  41     0.046250025338338
  42      0.12459762113549
  43    -5.5495417441502e-17
  44    1.2090098098582e-16
  45    8.1112173850967e-18
  46    4.4014042043124e-17
  47    1.2139220573857e-17