[Molden Format]
made by pyscf v[2.14.0]
[Atoms] (AU)
C   1   6     0.00000000000000     1.64311686570000     1.46245904810000
C   2   6     0.00000000000000     1.64311686570000    -1.46245904810000
C   3   6    -1.42296377210000    -0.82165291910000     1.46245904810000
C   4   6    -1.42296377210000    -0.82165291910000    -1.46245904810000
C   5   6     1.42296377210000    -0.82165291910000     1.46245904810000
C   6   6     1.42296377210000    -0.82165291910000    -1.46245904810000
H   7   1     0.00000000000000     3.13467769610000     2.83024281740000
H   8   1     0.00000000000000     3.13467769610000    -2.83024281740000
H   9   1    -2.71478055120000    -1.56733884810000     2.83024281740000
H   10   1    -2.71478055120000    -1.56733884810000    -2.83024281740000
H   11   1     2.71478055120000    -1.56733884810000     2.83024281740000
H   12   1     2.71478055120000    -1.56733884810000    -2.83024281740000
[GTO]
1 0
 s    9 1.00
                 33980  9.1634545701884e-05
                  5089  0.00070890901290249
                  1157   0.003718751398649
                 326.6   0.015467105736054
                 106.1   0.053298075488517
                 38.11    0.14806833520486
                 14.75     0.3077621740375
                 6.035    0.40212964454196
                  2.53    0.21856450306747
 s    9 1.00
                 33980  -5.5710360210471e-05
                  5089  -0.00044275075746216
                  1157  -0.0023017175139589
                 326.6  -0.0097463809126108
                 106.1  -0.033754614039102
                 38.11   -0.10016136340998
                 14.75   -0.22628082255382
                 6.035   -0.41487505248738
                  2.53   -0.34604636850945
 s    1 1.00
                0.7355                   1
 s    1 1.00
                0.2905                   1
 s    1 1.00
                0.1111                   1
 p    3 1.00
                 34.51   0.031687855209339
                 7.915     0.2128943072562
                 2.368    0.83958675201643
 p    1 1.00
                0.8132                   1
 p    1 1.00
                 0.289                   1
 p    1 1.00
                0.1007                   1
 d    1 1.00
                 1.848                   1
 d    1 1.00
                 0.649                   1
 d    1 1.00
                 0.228                   1
 f    1 1.00
                 1.419                   1
 f    1 1.00
                 0.485                   1
 g    1 1.00
                 1.011                   1

2 0
 s    9 1.00
                 33980  9.1634545701884e-05
                  5089  0.00070890901290249
                  1157   0.003718751398649
                 326.6   0.015467105736054
                 106.1   0.053298075488517
                 38.11    0.14806833520486
                 14.75     0.3077621740375
                 6.035    0.40212964454196
                  2.53    0.21856450306747
 s    9 1.00
                 33980  -5.5710360210471e-05
                  5089  -0.00044275075746216
                  1157  -0.0023017175139589
                 326.6  -0.0097463809126108
                 106.1  -0.033754614039102
                 38.11   -0.10016136340998
                 14.75   -0.22628082255382
                 6.035   -0.41487505248738
                  2.53   -0.34604636850945
 s    1 1.00
                0.7355                   1
 s    1 1.00
                0.2905                   1
 s    1 1.00
                0.1111                   1
 p    3 1.00
                 34.51   0.031687855209339
                 7.915     0.2128943072562
                 2.368    0.83958675201643
 p    1 1.00
                0.8132                   1
 p    1 1.00
                 0.289                   1
 p    1 1.00
                0.1007                   1
 d    1 1.00
                 1.848                   1
 d    1 1.00
                 0.649                   1
 d    1 1.00
                 0.228                   1
 f    1 1.00
                 1.419                   1
 f    1 1.00
                 0.485                   1
 g    1 1.00
                 1.011                   1

3 0
 s    9 1.00
                 33980  9.1634545701884e-05
                  5089  0.00070890901290249
                  1157   0.003718751398649
                 326.6   0.015467105736054
                 106.1   0.053298075488517
                 38.11    0.14806833520486
                 14.75     0.3077621740375
                 6.035    0.40212964454196
                  2.53    0.21856450306747
 s    9 1.00
                 33980  -5.5710360210471e-05
                  5089  -0.00044275075746216
                  1157  -0.0023017175139589
                 326.6  -0.0097463809126108
                 106.1  -0.033754614039102
                 38.11   -0.10016136340998
                 14.75   -0.22628082255382
                 6.035   -0.41487505248738
                  2.53   -0.34604636850945
 s    1 1.00
                0.7355                   1
 s    1 1.00
                0.2905                   1
 s    1 1.00
                0.1111                   1
 p    3 1.00
                 34.51   0.031687855209339
                 7.915     0.2128943072562
                 2.368    0.83958675201643
 p    1 1.00
                0.8132                   1
 p    1 1.00
                 0.289                   1
 p    1 1.00
                0.1007                   1
 d    1 1.00
                 1.848                   1
 d    1 1.00
                 0.649                   1
 d    1 1.00
                 0.228                   1
 f    1 1.00
                 1.419                   1
 f    1 1.00
                 0.485                   1
 g    1 1.00
                 1.011                   1

4 0
 s    9 1.00
                 33980  9.1634545701884e-05
                  5089  0.00070890901290249
                  1157   0.003718751398649
                 326.6   0.015467105736054
                 106.1   0.053298075488517
                 38.11    0.14806833520486
                 14.75     0.3077621740375
                 6.035    0.40212964454196
                  2.53    0.21856450306747
 s    9 1.00
                 33980  -5.5710360210471e-05
                  5089  -0.00044275075746216
                  1157  -0.0023017175139589
                 326.6  -0.0097463809126108
                 106.1  -0.033754614039102
                 38.11   -0.10016136340998
                 14.75   -0.22628082255382
                 6.035   -0.41487505248738
                  2.53   -0.34604636850945
 s    1 1.00
                0.7355                   1
 s    1 1.00
                0.2905                   1
 s    1 1.00
                0.1111                   1
 p    3 1.00
                 34.51   0.031687855209339
                 7.915     0.2128943072562
                 2.368    0.83958675201643
 p    1 1.00
                0.8132                   1
 p    1 1.00
                 0.289                   1
 p    1 1.00
                0.1007                   1
 d    1 1.00
                 1.848                   1
 d    1 1.00
                 0.649                   1
 d    1 1.00
                 0.228                   1
 f    1 1.00
                 1.419                   1
 f    1 1.00
                 0.485                   1
 g    1 1.00
                 1.011                   1

5 0
 s    9 1.00
                 33980  9.1634545701884e-05
                  5089  0.00070890901290249
                  1157   0.003718751398649
                 326.6   0.015467105736054
                 106.1   0.053298075488517
                 38.11    0.14806833520486
                 14.75     0.3077621740375
                 6.035    0.40212964454196
                  2.53    0.21856450306747
 s    9 1.00
                 33980  -5.5710360210471e-05
                  5089  -0.00044275075746216
                  1157  -0.0023017175139589
                 326.6  -0.0097463809126108
                 106.1  -0.033754614039102
                 38.11   -0.10016136340998
                 14.75   -0.22628082255382
                 6.035   -0.41487505248738
                  2.53   -0.34604636850945
 s    1 1.00
                0.7355                   1
 s    1 1.00
                0.2905                   1
 s    1 1.00
                0.1111                   1
 p    3 1.00
                 34.51   0.031687855209339
                 7.915     0.2128943072562
                 2.368    0.83958675201643
 p    1 1.00
                0.8132                   1
 p    1 1.00
                 0.289                   1
 p    1 1.00
                0.1007                   1
 d    1 1.00
                 1.848                   1
 d    1 1.00
                 0.649                   1
 d    1 1.00
                 0.228                   1
 f    1 1.00
                 1.419                   1
 f    1 1.00
                 0.485                   1
 g    1 1.00
                 1.011                   1

6 0
 s    9 1.00
                 33980  9.1634545701884e-05
                  5089  0.00070890901290249
                  1157   0.003718751398649
                 326.6   0.015467105736054
                 106.1   0.053298075488517
                 38.11    0.14806833520486
                 14.75     0.3077621740375
                 6.035    0.40212964454196
                  2.53    0.21856450306747
 s    9 1.00
                 33980  -5.5710360210471e-05
                  5089  -0.00044275075746216
                  1157  -0.0023017175139589
                 326.6  -0.0097463809126108
                 106.1  -0.033754614039102
                 38.11   -0.10016136340998
                 14.75   -0.22628082255382
                 6.035   -0.41487505248738
                  2.53   -0.34604636850945
 s    1 1.00
                0.7355                   1
 s    1 1.00
                0.2905                   1
 s    1 1.00
                0.1111                   1
 p    3 1.00
                 34.51   0.031687855209339
                 7.915     0.2128943072562
                 2.368    0.83958675201643
 p    1 1.00
                0.8132                   1
 p    1 1.00
                 0.289                   1
 p    1 1.00
                0.1007                   1
 d    1 1.00
                 1.848                   1
 d    1 1.00
                 0.649                   1
 d    1 1.00
                 0.228                   1
 f    1 1.00
                 1.419                   1
 f    1 1.00
                 0.485                   1
 g    1 1.00
                 1.011                   1

7 0
 s    3 1.00
                 82.64   0.022950757792906
                 12.41    0.17554011805411
                 2.824    0.86470355096212
 s    1 1.00
                0.7977                   1
 s    1 1.00
                0.2581                   1
 s    1 1.00
               0.08989                   1
 p    1 1.00
                 2.292                   1
 p    1 1.00
                 0.838                   1
 p    1 1.00
                 0.292                   1
 d    1 1.00
                 2.062                   1
 d    1 1.00
                 0.662                   1
 f    1 1.00
                 1.397                   1

8 0
 s    3 1.00
                 82.64   0.022950757792906
                 12.41    0.17554011805411
                 2.824    0.86470355096212
 s    1 1.00
                0.7977                   1
 s    1 1.00
                0.2581                   1
 s    1 1.00
               0.08989                   1
 p    1 1.00
                 2.292                   1
 p    1 1.00
                 0.838                   1
 p    1 1.00
                 0.292                   1
 d    1 1.00
                 2.062                   1
 d    1 1.00
                 0.662                   1
 f    1 1.00
                 1.397                   1

9 0
 s    3 1.00
                 82.64   0.022950757792906
                 12.41    0.17554011805411
                 2.824    0.86470355096212
 s    1 1.00
                0.7977                   1
 s    1 1.00
                0.2581                   1
 s    1 1.00
               0.08989                   1
 p    1 1.00
                 2.292                   1
 p    1 1.00
                 0.838                   1
 p    1 1.00
                 0.292                   1
 d    1 1.00
                 2.062                   1
 d    1 1.00
                 0.662                   1
 f    1 1.00
                 1.397                   1

10 0
 s    3 1.00
                 82.64   0.022950757792906
                 12.41    0.17554011805411
                 2.824    0.86470355096212
 s    1 1.00
                0.7977                   1
 s    1 1.00
                0.2581                   1
 s    1 1.00
               0.08989                   1
 p    1 1.00
                 2.292                   1
 p    1 1.00
                 0.838                   1
 p    1 1.00
                 0.292                   1
 d    1 1.00
                 2.062                   1
 d    1 1.00
                 0.662                   1
 f    1 1.00
                 1.397                   1

11 0
 s    3 1.00
                 82.64   0.022950757792906
                 12.41    0.17554011805411
                 2.824    0.86470355096212
 s    1 1.00
                0.7977                   1
 s    1 1.00
                0.2581                   1
 s    1 1.00
               0.08989                   1
 p    1 1.00
                 2.292                   1
 p    1 1.00
                 0.838                   1
 p    1 1.00
                 0.292                   1
 d    1 1.00
                 2.062                   1
 d    1 1.00
                 0.662                   1
 f    1 1.00
                 1.397                   1

12 0
 s    3 1.00
                 82.64   0.022950757792906
                 12.41    0.17554011805411
                 2.824    0.86470355096212
 s    1 1.00
                0.7977                   1
 s    1 1.00
                0.2581                   1
 s    1 1.00
               0.08989                   1
 p    1 1.00
                 2.292                   1
 p    1 1.00
                 0.838                   1
 p    1 1.00
                 0.292                   1
 d    1 1.00
                 2.062                   1
 d    1 1.00
                 0.662                   1
 f    1 1.00
                 1.397                   1

[5d]
[7f]
[9g]

[MO]
 Sym= A
 Ene=     -15.3666338
 Spin= Alpha
 Occup=    2.00000
   1     0.012985553611303
   2    -0.023188187842395
   3    -0.080791618564393
   4     -0.09769513547029
   5    -0.049476058871118
   6    5.5190617107641e-15
   7    -0.069628072433202
   8      0.21631720748239
   9    1.8061594881675e-14
  10    -0.050010238489728
  11      0.18130519897826
  12    -3.5343835277366e-14
  13     0.010941877846287
  14     0.072592017171704
  15    8.8848460251044e-14
  16    0.0033541651726181
  17     0.015738224464974
  18    -0.031655341452213
  19    -5.1828839590198e-16
  20    -0.028846750140301
  21     -0.01444167876373
  22    -2.1018667023376e-15
  23    -0.063919384845498
  24    -4.3653760864964e-15
  25    -0.074386776078598
  26    -0.013108313320088
  27    4.315341365825e-16
  28    -0.020749494213522
  29    5.0993494041365e-14
  30    -0.025076896480356
  31    -0.00024980152914979
  32    5.5154702907543e-14
  33    -0.00070105590679916
  34    1.4070612339354e-15
  35     0.014664450120141
  36    -0.0071941111025251
  37    6.9229098236291e-16
  38    -6.2948911399001e-16
  39    0.0078684440539759
  40    0.0090690843297675
  41    -7.0495181534751e-15
  42     0.042708353501289
  43    -0.008085538628351
  44    4.9427792541526e-15
  45    -3.3003914361137e-15
  46     0.010305431908355
  47     0.007102202065649
  48    1.7513052265648e-15
  49    0.0018600452972817
  50     0.010402458916077
  51    -6.2074813476639e-16
  52    -8.1839466039945e-16
  53    0.0036797555316558
  54    0.0023171232605048
  55    9.4105859781429e-16
  56    -0.012985553611303
  57     0.023188187842395
  58     0.080791618564363
  59     0.097695135470464
  60     0.049476058871705
  61    -7.2122379969087e-16
  62     0.069628072433206
  63      0.21631720748238
  64    -1.1090906788601e-14
  65     0.050010238489703
  66      0.18130519897827
  67    4.6709496393145e-14
  68    -0.010941877846088
  69     0.072592017171549
  70    -7.3170010099508e-14
  71    -0.0033541651727615
  72     0.015738224465015
  73     0.031655341452212
  74    7.4353508287184e-16
  75    -0.028846750140299
  76      0.01444167876373
  77    8.4369667117879e-16
  78     0.063919384845504
  79    -5.7762221291188e-15
  80    -0.074386776078609
  81     0.013108313320086
  82    -4.9609052373279e-15
  83     0.020749494213573
  84    5.1641746405775e-14
  85    -0.025076896480503
  86    0.00024980152907206
  87    -5.4899069617613e-14
  88    -0.00070105590679811
  89    -1.1897996314745e-15
  90    -0.014664450120142
  91    -0.0071941111025246
  92    1.9755873542693e-16
  93    -1.6808605650546e-16
  94    -0.0078684440539758
  95    0.0090690843297704
  96    5.6238643323752e-15
  97     -0.04270835350127
  98    -0.0080855386283327
  99    7.9436249147065e-15
 100    3.8235881158951e-15
 101    -0.010305431908358
 102    -0.0071022020656502
 103    1.8438096845162e-15
 104    0.0018600452972795
 105     -0.01040245891608
 106    1.0427624449508e-15
 107    7.3554244142305e-16
 108    0.0036797555316565
 109    -0.0023171232605038
 110    -1.3867769687432e-15
 111     0.013021788089864
 112     -0.02324049811959
 113    -0.081032528006761
 114    -0.097726399984986
 115     -0.04962643992581
 116     0.060430356249039
 117     0.034661886277431
 118      0.21660386067686
 119     0.043383211555469
 120     0.024867843988541
 121      0.18155999004346
 122    -0.0094129045540022
 123    -0.0054590210345423
 124     0.072606080085293
 125    -0.0029069319432358
 126    -0.0016886132322464
 127     0.015756202592491
 128    -0.031695274561003
 129     0.025006642375244
 130       0.0144606284067
 131    0.0072533894827796
 132     0.012493112985048
 133    -0.063992271228194
 134     0.064475757670102
 135     0.037262377863597
 136    0.0066077438471706
 137     0.011332004275314
 138     -0.02077392713202
 139     0.021760114983092
 140     0.012560660543426
 141    0.00012611169994934
 142    0.0002085517476748
 143    -0.00069828558914775
 144      -0.0127140128647
 145    -0.0073415852314929
 146    0.0035928234458001
 147    0.0062418894204684
 148    1.4411407585006e-05
 149    0.0078706285892311
 150    0.0090749924302434
 151    -0.037020275772439
 152    -0.021376102935851
 153    0.0040272935706251
 154    0.0070170784880194
 155    2.6121418810774e-05
 156     0.010309582785979
 157    0.0071062188052919
 158    -0.0016095350219301
 159    -0.00092917774925323
 160    -0.0052061094321916
 161    -0.0090139870188587
 162    -5.0153155606113e-06
 163    0.0036825120906568
 164    -0.0011503248075994
 165    0.0020080553791393
 166    -0.013021788089873
 167     0.023240498119583
 168     0.081032528006795
 169     0.097726399984798
 170     0.049626439925599
 171    -0.060430356249036
 172    -0.034661886277428
 173      0.21660386067686
 174    -0.043383211555462
 175    -0.024867843988536
 176      0.18155999004347
 177    0.0094129045541933
 178    0.0054590210346425
 179     0.072606080085444
 180    0.0029069319432483
 181    0.0016886132321981
 182     0.015756202592501
 183     0.031695274561003
 184     0.025006642375247
 185     0.014460628406703
 186    -0.0072533894827784
 187    -0.012493112985047
 188      0.06399227122818
 189     0.064475757670068
 190     0.037262377863573
 191    -0.0066077438471797
 192    -0.011332004275324
 193     0.020773927131991
 194     0.021760114983007
 195     0.012560660543377
 196    -0.00012611169997312
 197    -0.00020855174771307
 198    -0.00069828558914956
 199     0.012714012864701
 200    0.0073415852314931
 201     0.003592823445801
 202     0.006241889420471
 203    -1.4411407585475e-05
 204    -0.0078706285892295
 205    0.0090749924302465
 206     0.037020275772448
 207      0.02137610293586
 208      0.00402729357063
 209    0.0070170784880312
 210    -2.6121418807841e-05
 211    -0.010309582785972
 212    -0.0071062188052886
 213    -0.0016095350219297
 214    -0.00092917774925267
 215    0.0052061094321875
 216    0.0090139870188555
 217    -5.0153155633839e-06
 218    0.0036825120906529
 219    0.0011503248075994
 220    -0.0020080553791407
 221     0.013021788089892
 222     -0.02324049811956
 223    -0.081032528006677
 224    -0.097726399985331
 225    -0.049626439930239
 226    -0.060430356249032
 227     0.034661886277431
 228      0.21660386067687
 229    -0.043383211555467
 230     0.024867843988559
 231      0.18155999004345
 232    0.0094129045538786
 233    -0.0054590210345169
 234     0.072606080085356
 235    0.0029069319443332
 236    -0.0016886132327806
 237     0.015756202593606
 238    -0.031695274560998
 239    -0.025006642375244
 240     0.014460628406699
 241    0.0072533894827791
 242    -0.012493112985049
 243    -0.063992271228226
 244    -0.064475757670122
 245     0.037262377863605
 246    0.0066077438471629
 247    -0.011332004275302
 248    -0.020773927132206
 249    -0.021760114983498
 250     0.012560660543726
 251    0.00012611169983311
 252    -0.00020855174736442
 253    -0.00069828558914671
 254       0.0127140128647
 255    -0.0073415852314913
 256    0.0035928234457994
 257    -0.0062418894204657
 258    -1.441140758485e-05
 259    0.0078706285892339
 260    0.0090749924302617
 261     0.037020275772443
 262    -0.021376102935866
 263    0.0040272935706302
 264    -0.007017078488032
 265    -2.6121418808501e-05
 266     0.010309582785946
 267    0.0071062188052896
 268    0.0016095350219286
 269    -0.00092917774925104
 270    -0.0052061094321931
 271     0.009013987018859
 272    5.0153155615203e-06
 273    0.0036825120906586
 274    -0.0011503248075973
 275    -0.002008055379135
 276    -0.013021788089886
 277     0.023240498119567
 278     0.081032528006766
 279     0.097726399984925
 280     0.049626439929674
 281     0.060430356249037
 282    -0.034661886277432
 283      0.21660386067687
 284     0.043383211555483
 285     -0.02486784398856
 286      0.18155999004343
 287    -0.0094129045541349
 288    0.0054590210346672
 289     0.072606080085678
 290    -0.0029069319442252
 291    0.0016886132326786
 292     0.015756202593563
 293     0.031695274560999
 294    -0.025006642375248
 295     0.014460628406703
 296    -0.0072533894827776
 297     0.012493112985047
 298     0.063992271228209
 299    -0.064475757670073
 300     0.037262377863573
 301    -0.0066077438471831
 302     0.011332004275325
 303     0.020773927132179
 304    -0.021760114983357
 305     0.012560660543637
 306    -0.00012611169988707
 307    0.00020855174746475
 308    -0.00069828558914784
 309    -0.012714012864699
 310    0.0073415852314902
 311    0.0035928234457992
 312    -0.0062418894204664
 313    1.4411407586122e-05
 314    -0.0078706285892331
 315    0.0090749924302553
 316    -0.037020275772485
 317     0.021376102935892
 318    0.0040272935706522
 319    -0.007017078488069
 320    2.612141880572e-05
 321    -0.010309582785933
 322    -0.0071062188052845
 323    0.0016095350219336
 324    -0.00092917774925348
 325    0.0052061094321872
 326    -0.009013987018851
 327    5.0153155626071e-06
 328    0.0036825120906522
 329     0.001150324807598
 330    0.0020080553791364
 331    -0.00035783089056423
 332    0.0065364784499624
 333     0.029243751444045
 334    -0.001651665772568
 335    -1.3911654111696e-16
 336    -0.0017352549821146
 337    0.0012549406626692
 338    8.5658431219111e-16
 339    -0.0027149727506131
 340    -0.018118992705903
 341    -3.1674267404131e-14
 342    -0.0053266214279042
 343    -0.0096542074183332
 344    0.00038707282129124
 345    -1.1210113463401e-15
 346    0.0017935923751209
 347    -0.00056552753939983
 348    -3.6015586509954e-16
 349    0.0059341558378802
 350    6.4493756272072e-15
 351    0.0074787387775406
 352    -0.00040922547313539
 353    2.5990823953995e-15
 354     0.001295536241328
 355    -5.6085122512986e-16
 356    -0.0018693873565827
 357    0.0011998499591059
 358    -5.0202341177093e-16
 359    4.667729721701e-17
 360    2.3781313161678e-05
 361    0.00035783089056665
 362    -0.0065364784499951
 363    -0.029243751444492
 364    0.0016516657725899
 365    -2.2248704948443e-16
 366    0.0017352549821132
 367    0.0012549406626695
 368    1.5087426426399e-16
 369    0.0027149727506324
 370    -0.018118992705916
 371    2.9923568031803e-14
 372    0.0053266214280145
 373    -0.0096542074184178
 374    -0.0003870728212918
 375    -1.2112024796888e-15
 376    0.0017935923751211
 377    0.0005655275393994
 378    5.4246178895795e-16
 379    -0.0059341558378764
 380    5.8705759277668e-15
 381    0.0074787387775456
 382    0.00040922547314201
 383    -2.4927098914907e-15
 384    0.0012955362413284
 385    3.3340662573428e-16
 386    0.0018693873565808
 387    0.0011998499591048
 388    -1.3582689018948e-16
 389    1.6803156151497e-16
 390    -2.3781313161456e-05
 391    -0.00035879095378418
 392    0.0065429778958177
 393     0.029354733637807
 394    -0.0016478851640663
 395    0.0015036223837159
 396    0.00086613318859973
 397    0.0012569279669145
 398    0.0023550411591715
 399    0.0013652338019706
 400    -0.018135132097486
 401    0.0046301607102991
 402     0.002682344074985
 403    -0.0096779873734166
 404    0.00038721718141959
 405    -0.0015549272039141
 406    -0.00089643766248568
 407    0.00028375005420273
 408    0.00049006742505641
 409      0.00593812628854
 410    -0.0064824826546745
 411    -0.0037445124720594
 412    0.00020426018088816
 413    0.00035799162667566
 414    0.0012963429076693
 415    0.0016205329651263
 416    0.00093456667289757
 417    -0.00060129954671111
 418    -0.0010402707499121
 419    6.0656880145451e-09
 420    2.4859649813204e-05
 421    0.00035879095377856
 422    -0.0065429778957701
 423    -0.029354733637417
 424    0.0016478851640899
 425    -0.0015036223837182
 426    -0.00086613318860063
 427    0.0012569279669123
 428    -0.0023550411591416
 429    -0.0013652338019537
 430    -0.018135132097456
 431    -0.004630160710209
 432    -0.0026823440749259
 433    -0.0096779873733275
 434    -0.00038721718141927
 435    -0.0015549272039127
 436    -0.00089643766248496
 437    -0.00028375005420289
 438    -0.00049006742505543
 439    -0.0059381262885373
 440    -0.0064824826546601
 441    -0.0037445124720474
 442    -0.00020426018088221
 443    -0.00035799162666547
 444    0.0012963429076686
 445    -0.0016205329651257
 446    -0.00093456667289653
 447    -0.00060129954671099
 448    -0.0010402707499108
 449    -6.0656881152208e-09
 450    -2.4859649812251e-05
 451    -0.00035879095378451
 452    0.0065429778957982
 453     0.029354733638866
 454    -0.001647885164506
 455    -0.0015036223837161
 456    0.00086613318859896
 457    0.0012569279669157
 458    -0.0023550411591751
 459    0.0013652338019779
 460    -0.018135132097495
 461    -0.0046301607105165
 462    0.0026823440750761
 463    -0.0096779873736199
 464    0.00038721718141887
 465    0.0015549272039134
 466    -0.00089643766248656
 467    0.00028375005420255
 468    -0.00049006742505676
 469     0.005938126288543
 470    0.0064824826546924
 471    -0.003744512472064
 472    0.00020426018089235
 473    -0.00035799162668258
 474    0.0012963429076705
 475    -0.0016205329651269
 476    0.00093456667289703
 477    -0.00060129954671167
 478    0.0010402707499128
 479    -6.0656876182719e-09
 480    2.4859649813429e-05
 481    0.00035879095377497
 482    -0.0065429778956858
 483    -0.029354733638215
 484    0.0016478851644857
 485    0.0015036223837177
 486    -0.00086613318859971
 487    0.0012569279669157
 488    0.0023550411591247
 489    -0.0013652338019486
 490    -0.018135132097455
 491    0.0046301607103703
 492    -0.0026823440749917
 493    -0.0096779873734783
 494    -0.00038721718141898
 495    0.0015549272039108
 496    -0.00089643766248516
 497    -0.00028375005420209
 498    0.00049006742505502
 499    -0.0059381262885476
 500      0.00648248265468
 501    -0.0037445124720546
 502    -0.00020426018088423
 503    0.00035799162667027
 504    0.0012963429076694
 505    0.0016205329651291
 506    -0.00093456667289781
 507    -0.00060129954671223
 508    0.0010402707499133
 509    6.0656875625678e-09
 510    -2.485964981298e-05
 Sym= A
 Ene=    -15.34569148
 Spin= Alpha
 Occup=    2.00000
   1     0.030927510654471
   2      -0.0435467141135
   3     -0.20176933377878
   4    -0.014344990186542
   5    -0.082390843399763
   6    -1.469514890249e-11
   7     0.018850024735947
   8      0.15861042562693
   9    -1.1561876189551e-11
  10     0.044892782532557
  11      0.14641039973842
  12    -1.5643098144162e-12
  13    -0.038103857431867
  14    -0.0041935998450271
  15    -4.4366478243212e-13
  16    -9.1418268285273e-05
  17    0.0046216412287594
  18    -0.019662359405454
  19    1.5064701016823e-12
  20    -0.025529685473244
  21    0.0042251984415037
  22    2.5645144897453e-12
  23    -0.034664300224559
  24    2.5004413700758e-12
  25    -0.055204650613263
  26    0.0063166532897039
  27    4.2364744529642e-12
  28    -0.011903792378369
  29    -1.1845077009794e-14
  30    -0.028607677753562
  31    0.0053371171700545
  32    3.9402816828611e-13
  33    0.0013505832651358
  34    -9.2757896107675e-14
  35    0.0087995953609009
  36    -0.0053888717496868
  37    -7.1622520757653e-13
  38    1.0041704744685e-12
  39    -0.00084322034884427
  40    0.0010410217128441
  41    -2.2762912390783e-13
  42      0.02268029711909