[Molden Format]
made by pyscf v[2.14.0]
[Atoms] (AU)
C   1   6     0.00000000000000     1.64311686570000     1.46245904810000
C   2   6     0.00000000000000     1.64311686570000    -1.46245904810000
C   3   6    -1.42296377210000    -0.82165291910000     1.46245904810000
C   4   6    -1.42296377210000    -0.82165291910000    -1.46245904810000
C   5   6     1.42296377210000    -0.82165291910000     1.46245904810000
C   6   6     1.42296377210000    -0.82165291910000    -1.46245904810000
H   7   1     0.00000000000000     3.13467769610000     2.83024281740000
H   8   1     0.00000000000000     3.13467769610000    -2.83024281740000
H   9   1    -2.71478055120000    -1.56733884810000     2.83024281740000
H   10   1    -2.71478055120000    -1.56733884810000    -2.83024281740000
H   11   1     2.71478055120000    -1.56733884810000     2.83024281740000
H   12   1     2.71478055120000    -1.56733884810000    -2.83024281740000
[GTO]
1 0
 s    9 1.00
                 33980  9.1634545701884e-05
                  5089  0.00070890901290249
                  1157   0.003718751398649
                 326.6   0.015467105736054
                 106.1   0.053298075488517
                 38.11    0.14806833520486
                 14.75     0.3077621740375
                 6.035    0.40212964454196
                  2.53    0.21856450306747
 s    9 1.00
                 33980  -5.5710360210471e-05
                  5089  -0.00044275075746216
                  1157  -0.0023017175139589
                 326.6  -0.0097463809126108
                 106.1  -0.033754614039102
                 38.11   -0.10016136340998
                 14.75   -0.22628082255382
                 6.035   -0.41487505248738
                  2.53   -0.34604636850945
 s    1 1.00
                0.7355                   1
 s    1 1.00
                0.2905                   1
 s    1 1.00
                0.1111                   1
 p    3 1.00
                 34.51   0.031687855209339
                 7.915     0.2128943072562
                 2.368    0.83958675201643
 p    1 1.00
                0.8132                   1
 p    1 1.00
                 0.289                   1
 p    1 1.00
                0.1007                   1
 d    1 1.00
                 1.848                   1
 d    1 1.00
                 0.649                   1
 d    1 1.00
                 0.228                   1
 f    1 1.00
                 1.419                   1
 f    1 1.00
                 0.485                   1
 g    1 1.00
                 1.011                   1

2 0
 s    9 1.00
                 33980  9.1634545701884e-05
                  5089  0.00070890901290249
                  1157   0.003718751398649
                 326.6   0.015467105736054
                 106.1   0.053298075488517
                 38.11    0.14806833520486
                 14.75     0.3077621740375
                 6.035    0.40212964454196
                  2.53    0.21856450306747
 s    9 1.00
                 33980  -5.5710360210471e-05
                  5089  -0.00044275075746216
                  1157  -0.0023017175139589
                 326.6  -0.0097463809126108
                 106.1  -0.033754614039102
                 38.11   -0.10016136340998
                 14.75   -0.22628082255382
                 6.035   -0.41487505248738
                  2.53   -0.34604636850945
 s    1 1.00
                0.7355                   1
 s    1 1.00
                0.2905                   1
 s    1 1.00
                0.1111                   1
 p    3 1.00
                 34.51   0.031687855209339
                 7.915     0.2128943072562
                 2.368    0.83958675201643
 p    1 1.00
                0.8132                   1
 p    1 1.00
                 0.289                   1
 p    1 1.00
                0.1007                   1
 d    1 1.00
                 1.848                   1
 d    1 1.00
                 0.649                   1
 d    1 1.00
                 0.228                   1
 f    1 1.00
                 1.419                   1
 f    1 1.00
                 0.485                   1
 g    1 1.00
                 1.011                   1

3 0
 s    9 1.00
                 33980  9.1634545701884e-05
                  5089  0.00070890901290249
                  1157   0.003718751398649
                 326.6   0.015467105736054
                 106.1   0.053298075488517
                 38.11    0.14806833520486
                 14.75     0.3077621740375
                 6.035    0.40212964454196
                  2.53    0.21856450306747
 s    9 1.00
                 33980  -5.5710360210471e-05
                  5089  -0.00044275075746216
                  1157  -0.0023017175139589
                 326.6  -0.0097463809126108
                 106.1  -0.033754614039102
                 38.11   -0.10016136340998
                 14.75   -0.22628082255382
                 6.035   -0.41487505248738
                  2.53   -0.34604636850945
 s    1 1.00
                0.7355                   1
 s    1 1.00
                0.2905                   1
 s    1 1.00
                0.1111                   1
 p    3 1.00
                 34.51   0.031687855209339
                 7.915     0.2128943072562
                 2.368    0.83958675201643
 p    1 1.00
                0.8132                   1
 p    1 1.00
                 0.289                   1
 p    1 1.00
                0.1007                   1
 d    1 1.00
                 1.848                   1
 d    1 1.00
                 0.649                   1
 d    1 1.00
                 0.228                   1
 f    1 1.00
                 1.419                   1
 f    1 1.00
                 0.485                   1
 g    1 1.00
                 1.011                   1

4 0
 s    9 1.00
                 33980  9.1634545701884e-05
                  5089  0.00070890901290249
                  1157   0.003718751398649
                 326.6   0.015467105736054
                 106.1   0.053298075488517
                 38.11    0.14806833520486
                 14.75     0.3077621740375
                 6.035    0.40212964454196
                  2.53    0.21856450306747
 s    9 1.00
                 33980  -5.5710360210471e-05
                  5089  -0.00044275075746216
                  1157  -0.0023017175139589
                 326.6  -0.0097463809126108
                 106.1  -0.033754614039102
                 38.11   -0.10016136340998
                 14.75   -0.22628082255382
                 6.035   -0.41487505248738
                  2.53   -0.34604636850945
 s    1 1.00
                0.7355                   1
 s    1 1.00
                0.2905                   1
 s    1 1.00
                0.1111                   1
 p    3 1.00
                 34.51   0.031687855209339
                 7.915     0.2128943072562
                 2.368    0.83958675201643
 p    1 1.00
                0.8132                   1
 p    1 1.00
                 0.289                   1
 p    1 1.00
                0.1007                   1
 d    1 1.00
                 1.848                   1
 d    1 1.00
                 0.649                   1
 d    1 1.00
                 0.228                   1
 f    1 1.00
                 1.419                   1
 f    1 1.00
                 0.485                   1
 g    1 1.00
                 1.011                   1

5 0
 s    9 1.00
                 33980  9.1634545701884e-05
                  5089  0.00070890901290249
                  1157   0.003718751398649
                 326.6   0.015467105736054
                 106.1   0.053298075488517
                 38.11    0.14806833520486
                 14.75     0.3077621740375
                 6.035    0.40212964454196
                  2.53    0.21856450306747
 s    9 1.00
                 33980  -5.5710360210471e-05
                  5089  -0.00044275075746216
                  1157  -0.0023017175139589
                 326.6  -0.0097463809126108
                 106.1  -0.033754614039102
                 38.11   -0.10016136340998
                 14.75   -0.22628082255382
                 6.035   -0.41487505248738
                  2.53   -0.34604636850945
 s    1 1.00
                0.7355                   1
 s    1 1.00
                0.2905                   1
 s    1 1.00
                0.1111                   1
 p    3 1.00
                 34.51   0.031687855209339
                 7.915     0.2128943072562
                 2.368    0.83958675201643
 p    1 1.00
                0.8132                   1
 p    1 1.00
                 0.289                   1
 p    1 1.00
                0.1007                   1
 d    1 1.00
                 1.848                   1
 d    1 1.00
                 0.649                   1
 d    1 1.00
                 0.228                   1
 f    1 1.00
                 1.419                   1
 f    1 1.00
                 0.485                   1
 g    1 1.00
                 1.011                   1

6 0
 s    9 1.00
                 33980  9.1634545701884e-05
                  5089  0.00070890901290249
                  1157   0.003718751398649
                 326.6   0.015467105736054
                 106.1   0.053298075488517
                 38.11    0.14806833520486
                 14.75     0.3077621740375
                 6.035    0.40212964454196
                  2.53    0.21856450306747
 s    9 1.00
                 33980  -5.5710360210471e-05
                  5089  -0.00044275075746216
                  1157  -0.0023017175139589
                 326.6  -0.0097463809126108
                 106.1  -0.033754614039102
                 38.11   -0.10016136340998
                 14.75   -0.22628082255382
                 6.035   -0.41487505248738
                  2.53   -0.34604636850945
 s    1 1.00
                0.7355                   1
 s    1 1.00
                0.2905                   1
 s    1 1.00
                0.1111                   1
 p    3 1.00
                 34.51   0.031687855209339
                 7.915     0.2128943072562
                 2.368    0.83958675201643
 p    1 1.00
                0.8132                   1
 p    1 1.00
                 0.289                   1
 p    1 1.00
                0.1007                   1
 d    1 1.00
                 1.848                   1
 d    1 1.00
                 0.649                   1
 d    1 1.00
                 0.228                   1
 f    1 1.00
                 1.419                   1
 f    1 1.00
                 0.485                   1
 g    1 1.00
                 1.011                   1

7 0
 s    3 1.00
                 82.64   0.022950757792906
                 12.41    0.17554011805411
                 2.824    0.86470355096212
 s    1 1.00
                0.7977                   1
 s    1 1.00
                0.2581                   1
 s    1 1.00
               0.08989                   1
 p    1 1.00
                 2.292                   1
 p    1 1.00
                 0.838                   1
 p    1 1.00
                 0.292                   1
 d    1 1.00
                 2.062                   1
 d    1 1.00
                 0.662                   1
 f    1 1.00
                 1.397                   1

8 0
 s    3 1.00
                 82.64   0.022950757792906
                 12.41    0.17554011805411
                 2.824    0.86470355096212
 s    1 1.00
                0.7977                   1
 s    1 1.00
                0.2581                   1
 s    1 1.00
               0.08989                   1
 p    1 1.00
                 2.292                   1
 p    1 1.00
                 0.838                   1
 p    1 1.00
                 0.292                   1
 d    1 1.00
                 2.062                   1
 d    1 1.00
                 0.662                   1
 f    1 1.00
                 1.397                   1

9 0
 s    3 1.00
                 82.64   0.022950757792906
                 12.41    0.17554011805411
                 2.824    0.86470355096212
 s    1 1.00
                0.7977                   1
 s    1 1.00
                0.2581                   1
 s    1 1.00
               0.08989                   1
 p    1 1.00
                 2.292                   1
 p    1 1.00
                 0.838                   1
 p    1 1.00
                 0.292                   1
 d    1 1.00
                 2.062                   1
 d    1 1.00
                 0.662                   1
 f    1 1.00
                 1.397                   1

10 0
 s    3 1.00
                 82.64   0.022950757792906
                 12.41    0.17554011805411
                 2.824    0.86470355096212
 s    1 1.00
                0.7977                   1
 s    1 1.00
                0.2581                   1
 s    1 1.00
               0.08989                   1
 p    1 1.00
                 2.292                   1
 p    1 1.00
                 0.838                   1
 p    1 1.00
                 0.292                   1
 d    1 1.00
                 2.062                   1
 d    1 1.00
                 0.662                   1
 f    1 1.00
                 1.397                   1

11 0
 s    3 1.00
                 82.64   0.022950757792906
                 12.41    0.17554011805411
                 2.824    0.86470355096212
 s    1 1.00
                0.7977                   1
 s    1 1.00
                0.2581                   1
 s    1 1.00
               0.08989                   1
 p    1 1.00
                 2.292                   1
 p    1 1.00
                 0.838                   1
 p    1 1.00
                 0.292                   1
 d    1 1.00
                 2.062                   1
 d    1 1.00
                 0.662                   1
 f    1 1.00
                 1.397                   1

12 0
 s    3 1.00
                 82.64   0.022950757792906
                 12.41    0.17554011805411
                 2.824    0.86470355096212
 s    1 1.00
                0.7977                   1
 s    1 1.00
                0.2581                   1
 s    1 1.00
               0.08989                   1
 p    1 1.00
                 2.292                   1
 p    1 1.00
                 0.838                   1
 p    1 1.00
                 0.292                   1
 d    1 1.00
                 2.062                   1
 d    1 1.00
                 0.662                   1
 f    1 1.00
                 1.397                   1

[6d]
[10f]
[15g]

[MO]
 Sym= A
 Ene=    -15.36799011
 Spin= Alpha
 Occup=    2.00000
   1    -0.0045797569542087
   2    -0.048104483839992
   3    -0.096317530894145
   4      -0.1757509706141
   5     0.017728614792055
   6    -7.0866049081081e-14
   7    -0.073349584915999
   8      0.22454615510029
   9    3.4063535636409e-13
  10    -0.026927920640373
  11      0.13035389976611
  12    -1.2215644939031e-12
  13    -0.012177847753242
  14      0.11790008846043
  15    2.8600486797939e-13
  16    -0.012749343789163
  17    -0.0029683047247165
  18     0.012059761736139
  19     0.036531075975235
  20    -0.051050352514736
  21    9.6897089163192e-14
  22    1.1293042955935e-13
  23    -0.045989781848509
  24    0.0088154049042078
  25     0.036922330147172
  26     0.088436427651059
  27    -4.9256495308615e-13
  28    -5.9223573764489e-13
  29     0.021612234109762
  30    -0.0078034122275866
  31    -0.014743587340531
  32     -0.07505084326054
  33    2.2458178642297e-13
  34    1.5942026129689e-13
  35    -0.051478483754423
  36    1.4959371210283e-14
  37    -0.021378619241693
  38     0.017921134148372
  39    -3.9664767209926e-16
  40    0.00090022242360392
  41    0.0024711730891104
  42    8.1703836871254e-15
  43     0.013651081368281
  44     0.016361965339264
  45    -3.9521055267156e-15
  46    4.8701006067684e-13
  47    -0.032694040476842
  48    -0.024428180229747
  49    2.835021854051e-13
  50    0.0026424050874435
  51    -0.021801991824901
  52    2.1796620600246e-13
  53     0.047793723878107
  54    -0.0098433401876699
  55    6.5865390945391e-14
  56    0.0077699340725129
  57     0.016279076992417
  58    -0.067399812620804
  59    1.6338543303151e-13
  60    1.9130882181778e-13
  61    1.6519523201621e-13
  62    -0.040357982366021
  63    2.1242241300989e-13
  64    -0.034036625561952
  65    0.0033909695928767
  66    -0.014456695081923
  67    -0.036251572723131
  68    -0.011950626915311
  69    8.9397159276982e-14
  70    7.0419679334562e-14
  71    0.0045797569541463
  72     0.048104483839905
  73     0.096317530893524
  74       0.1757509706235
  75    -0.017728614794395
  76    6.2767933120749e-14
  77     0.073349584915992
  78      0.22454615510029
  79    -4.3942894924294e-13
  80     0.026927920641269
  81      0.13035389976523
  82    2.2361793066046e-12
  83     0.012177847749841
  84      0.11790008846224
  85    -1.5579569289229e-13
  86     0.012749343789301
  87    -0.0029683047246666
  88    -0.012059761735994
  89      -0.0365310759753
  90     0.051050352514946
  91    1.838155901004e-14
  92    1.5980482672287e-14
  93    -0.045989781848561
  94    -0.0088154049049349
  95    -0.036922330146605
  96    -0.088436427652071
  97    -1.5820727645649e-13
  98    -6.8720372188791e-14
  99     0.021612234109956
 100    0.0078034122285121
 101     0.014743587345366
 102     0.075050843263964
 103    -5.5927099319542e-13
 104    4.2318233948502e-13
 105    -0.051478483758259
 106    -8.5906437389804e-15
 107      0.02137861924177
 108     0.017921134148293
 109    1.2589539104256e-14
 110    -0.00090022242357004
 111    0.0024711730890814
 112    -1.3997396166646e-14
 113    -0.013651081368249
 114     0.016361965339223
 115    1.0126260575457e-15
 116    -6.5231633075296e-13
 117     0.032694040478049
 118    -0.024428180231118
 119    -2.4065220677753e-13
 120    -0.0026424050868402
 121    -0.021801991825478
 122    -2.3067188808724e-13
 123    -0.047793723877336
 124    -0.0098433401881399
 125    -4.18379849893e-14
 126    -0.0077699340721891
 127    -0.016279076992645
 128     0.067399812621276
 129    3.7234620883516e-14
 130    2.1858428168224e-14
 131    2.4687271208121e-14
 132     -0.04035798236612
 133    2.7895895181454e-14
 134    -0.034036625562026
 135    -0.0033909695928359
 136     0.014456695082167
 137     0.036251572723169
 138    -0.011950626915363
 139    1.4205016943279e-14
 140    2.8711842065189e-14
 141    -0.0045958932165484
 142    -0.048233779476434
 143    -0.096453153577753
 144     -0.17596138358501
 145     0.017321824846663
 146     0.063661122115554
 147     0.036511171299195
 148      0.22484844755384
 149     0.023333039423541
 150     0.013338115871537
 151      0.13058602007731
 152     0.010711040720905
 153    0.0061086399706362
 154      0.11786729864805
 155     0.011012544965408
 156    0.0063378870957941
 157    -0.0029226073093965
 158     0.030487932159794
 159     0.018171730933977
 160    -0.051108606508587
 161     0.012214533495342
 162     0.039867759661852
 163      0.02305339983447
 164     0.030007279833359
 165     0.015959579480009
 166     0.088619609190611
 167     0.014077433396633
 168    -0.018759008523176
 169     -0.01085689880887
 170     -0.01287604932956
 171    -0.0094636551296114
 172    -0.074983561371565
 173    -0.0034667262936869
 174     0.044587398838946
 175     0.025759157268512
 176     0.013481243641034
 177    0.0019068533667416
 178     0.017951366990237
 179    0.0060079983310883
 180     0.011314415202423
 181     0.012897027947882
 182    -0.011835624481013
 183    -0.0068439454578355
 184     0.005958305333425
 185    0.0069585074826959
 186     0.019926643664398
 187    0.0018652090215969
 188    -0.024389606482153
 189    0.0088809577835796
 190     0.018099797399238
 191    -0.012831569429586
 192    -0.041456851460804
 193    -0.023925989490695
 194    -0.018797831329165
 195    0.0059952402120474
 196     0.011855197911779
 197    0.0075321143898132
 198    -0.067490850334057
 199    0.0048141799517813
 200     0.032019159012354
 201    0.00073014201396072
 202     0.015101785747822
 203      0.02950641891657
 204     0.017058298767299
 205    0.0074893468214425
 206    -0.030826456728796
 207    -0.019941382085315
 208     0.012855085571391
 209     0.014326716764417
 210    -0.010910014633415
 211    0.0045958932166058
 212      0.04823377947651
 213     0.096453153577826
 214      0.17596138358383
 215    -0.017321824844641
 216    -0.063661122115559
 217    -0.036511171299224
 218      0.22484844755384
 219    -0.023333039423856
 220    -0.013338115871518
 221      0.13058602007713
 222    -0.010711040717953
 223    -0.0061086399708395
 224      0.11786729864977
 225    -0.011012544964784
 226    -0.0063378870954416
 227    -0.0029226073090846
 228    -0.030487932160119
 229    -0.018171730933944
 230     0.051108606508447
 231    -0.012214533495312
 232     0.039867759661603
 233     0.023053399834601
 234    -0.030007279831719
 235    -0.015959579480427
 236    -0.088619609190085
 237    -0.014077433396842
 238    -0.018759008521847
 239     -0.01085689880962
 240     0.012876049329563
 241    0.0094636551288974
 242     0.074983561370856
 243    0.0034667262933363
 244     0.044587398838748
 245     0.025759157267963
 246    -0.013481243641022
 247    -0.0019068533667803
 248     0.017951366990195
 249    -0.0060079983311044
 250    -0.011314415202436
 251      0.01289702794786
 252     0.011835624481008
 253    0.0068439454578401
 254    0.0059583053334114
 255       0.0069585074827
 256    -0.019926643664716
 257    -0.0018652090216724
 258    -0.024389606482542
 259    -0.0088809577838754
 260    -0.018099797399242
 261    -0.012831569429567
 262     0.041456851460618
 263       0.0239259894906
 264    -0.018797831329439
 265    0.0059952402120214
 266    -0.011855197912584
 267    -0.0075321143896319
 268     0.067490850333735
 269    -0.004814179951729
 270      0.03201915901188
 271    -0.00073014201391799
 272     0.015101785748057
 273     0.029506418916082
 274     0.017058298767556
 275    -0.0074893468216457
 276     0.030826456728434
 277     0.019941382085276
 278     0.012855085571487
 279     0.014326716764204
 280     0.010910014633441
 281    -0.0045958932163997
 282     -0.04823377947619
 283    -0.096453153575186
 284     -0.17596138359764
 285     0.017321824833159
 286    -0.063661122115599
 287     0.036511171299143
 288       0.2248484475538
 289    -0.023333039423388
 290     0.013338115871454
 291      0.13058602007717
 292    -0.010711040721884
 293    0.0061086399719825
 294      0.11786729864648
 295    -0.011012544962049
 296    0.0063378870943017
 297    -0.0029226073063146
 298     0.030487932159876
 299     0.018171730933711
 300    -0.051108606508939
 301    -0.012214533495366
 302    -0.039867759661767
 303     0.023053399834566
 304     0.030007279832817
 305     0.015959579481414
 306     0.088619609192457
 307    -0.014077433396413
 308     0.018759008522666
 309    -0.010856898809338
 310    -0.012876049332447
 311    -0.0094636551292707
 312    -0.074983561374573
 313    0.0034667262966565
 314    -0.044587398844387
 315     0.025759157271576
 316    -0.013481243641069
 317    0.0019068533667279
 318     0.017951366990224
 319    -0.006007998331096
 320     0.011314415202438
 321     0.012897027947859
 322     0.011835624480987
 323    -0.0068439454578288
 324    0.0059583053334265
 325    -0.0069585074826817
 326    -0.019926643663817
 327    0.0018652090214228
 328    -0.024389606482144
 329    -0.0088809577834645
 330     0.018099797398967
 331    -0.012831569429397
 332     0.041456851460886
 333    -0.023925989490762
 334    -0.018797831329177
 335    -0.0059952402120599
 336     0.011855197912242
 337    0.0075321143893677
 338    -0.067490850334804
 339    -0.0048141799518027
 340    -0.032019159012223
 341    -0.0007301420140022
 342     0.015101785748006
 343    -0.029506418916431
 344     0.017058298767493
 345    0.0074893468214442
 346     -0.03082645672888
 347    -0.019941382085672
 348     0.012855085571466
 349    -0.014326716764359
 350     0.010910014633392
 351    0.0045958932168098
 352     0.048233779476782
 353     0.096453153579085
 354      0.17596138358236
 355    -0.017321824833305
 356      0.06366112211558
 357     -0.03651117129916
 358      0.22484844755378
 359     0.023333039423082
 360    -0.013338115871188
 361      0.13058602007791
 362      0.01071104072295
 363    -0.0061086399732611
 364      0.11786729864615
 365     0.011012544962563
 366    -0.0063378870944305
 367    -0.0029226073066899
 368    -0.030487932160355
 369     -0.01817173093425
 370     0.051108606507945
 371      0.01221453349525
 372    -0.039867759661575
 373     0.023053399834561
 374    -0.030007279830793
 375    -0.015959579479088
 376    -0.088619609187704
 377      0.01407743339708
 378     0.018759008521596
 379    -0.010856898809313
 380     0.012876049328987
 381    0.0094636551278437
 382     0.074983561371182
 383    -0.0034667262942328
 384     -0.04458739884046
 385     0.025759157269112
 386     0.013481243640998
 387    -0.0019068533667093
 388     0.017951366990225
 389    0.0060079983310803
 390    -0.011314415202428
 391     0.012897027947863
 392    -0.011835624481007
 393    0.0068439454578443
 394    0.0059583053334284
 395    -0.0069585074826846
 396      0.01992664366354
 397    -0.0018652090210936
 398    -0.024389606481031
 399    0.0088809577833383
 400    -0.018099797398935
 401    -0.012831569429082
 402     -0.04145685146129
 403     0.023925989490992
 404     -0.01879783132884
 405    -0.0059952402119552
 406    -0.011855197913008
 407    -0.007532114390256
 408     0.067490850332654
 409    0.0048141799515995
 410    -0.032019159011849
 411    0.00073014201384262
 412     0.015101785747969
 413    -0.029506418916068
 414     0.017058298767489
 415    -0.007489346821926
 416     0.030826456728043
 417     0.019941382084789
 418     0.012855085571467
 419    -0.014326716764195
 420    -0.010910014633501
 421    -7.6923923383293e-05
 422    -0.010521363234949
 423       0.1046118957755
 424    0.0026378638418968
 425    -7.8559836177427e-15
 426    -0.020707533169348
 427       0.0014044400198
 428    2.3532525556751e-14
 429     0.063871884009462
 430    -0.021235852401099
 431    -7.8576774488363e-14
 432    -0.024974088359191
 433    -0.015631072335768
 434    -5.2438642582763e-05
 435    0.0015167401406602
 436    0.00037659040318426
 437    1.1401717080208e-16
 438    2.9222913458674e-16
 439    0.0019150765414431
 440     -0.01011642354297
 441    -0.013138384459541
 442    0.0011158635877872
 443    9.2179935781971e-15
 444    1.1613596912948e-14
 445    0.0041881132009251
 446    -9.9592934955944e-15
 447    -0.025364127511197
 448    0.0040062232342404
 449    -7.0540708501075e-15
 450    -0.011835099531525
 451     0.001257688872513
 452    -7.265987748894e-15
 453    -0.012793190935105
 454    0.0014819346694131
 455    -7.7939076754216e-16
 456    7.6923923386106e-05
 457     0.010521363235069
 458     -0.10461189578396
 459    -0.0026378638417025
 460    4.0631399406564e-14
 461     0.020707533169127
 462    0.0014044400198827
 463    -1.6182849834735e-13
 464    -0.063871884008667
 465    -0.021235852401369
 466    1.7337014166868e-13
 467      0.02497408836085
 468    -0.015631072337467
 469    5.2438642578432e-05
 470    -0.0015167401406496
 471    -0.00037659040317768
 472    2.4906077770954e-15
 473    -4.0774476839636e-15
 474    0.0019150765414222
 475     0.010116423543037
 476     0.013138384459468
 477    -0.001115863587813
 478    4.331717124205e-15
 479    1.170041496713e-14
 480    0.0041881132010813
 481    5.8792623973379e-14
 482     0.025364127510897
 483    0.0040062232343372
 484    2.317022543054e-14
 485     0.011835099531387
 486    0.0012576888725619
 487    2.9202328168802e-14
 488     0.012793190934983
 489    0.0014819346694464
 490    2.0516080512303e-15
 491    -7.6344486962171e-05
 492    -0.010556151253428
 493      0.10463872923865
 494    0.0026377345061537
 495     0.017960451706309
 496     0.010355849730145
 497    0.0013989042564652
 498    -0.055413120633316
 499    -0.031946655230319
 500    -0.021216559437092
 501     0.021639944965765
 502     0.012482564583324
 503    -0.015629616357055
 504    0.0011263132477697
 505    0.00033891900148796
 506    0.00037603189605599
 507    0.00078473800369869
 508    -0.0016595090213755
 509    -0.00095651016199857
 510    -0.012399668208066
 511    -0.010881818662414
 512    0.0011064299868894
 513    -0.001515061325608
 514    -0.0036234054081638
 515    -0.0020916757547587
 516     0.022239793965465
 517     0.013096779625327
 518    0.0040008829469892
 519    0.0099457727520712
 520    0.0053651594332152
 521    0.0014229039357864
 522     0.011095126678257
 523    0.0063959057343685
 524    0.0013117412732063
 525    0.00011306667398492
 526    7.634448695067e-05
 527     0.010556151253342
 528     -0.10463872923633
 529    -0.0026377345059712
 530    -0.017960451706258
 531    -0.010355849730144
 532    0.0013989042565001
 533     0.055413120633168
 534     0.031946655230362
 535    -0.021216559437158
 536    -0.021639944965185
 537    -0.012482564583168
 538    -0.015629616356533
 539    -0.0011263132477779
 540    -0.00033891900148956
 541    -0.00037603189606054
 542    -0.00078473800369446
 543    -0.0016595090213797
 544    -0.00095651016198966
 545     0.012399668208011
 546     0.010881818662352
 547    -0.0011064299869061
 548    0.0015150613256339
 549    -0.0036234054080898
 550    -0.0020916757547391
 551    -0.022239793965415
 552    -0.013096779625329
 553    0.0040008829470323
 554    -0.0099457727520393
 555    -0.0053651594332172
 556    0.0014229039358035
 557    -0.011095126678226
 558    -0.0063959057343721
 559    0.0013117412732284
 560    0.00011306667398745