[Molden Format]
made by pyscf v[2.14.0]
[Atoms] (AU)
N   1   7     0.00000000000000     0.00000000000000     2.63881356090000
C   2   6     0.00000000000000     0.00000000000000    -2.58609020210000
C   3   6     0.00000000000000     2.13142209640000     1.35323287810000
C   4   6     0.00000000000000    -2.13142209640000     1.35323287810000
C   5   6     0.00000000000000     2.24291593780000    -1.25572301010000
C   6   6     0.00000000000000    -2.24291593780000    -1.25572301010000
H   7   1     0.00000000000000     0.00000000000000    -4.61471119720000
H   8   1     0.00000000000000     3.84181321210000     2.44795122230000
H   9   1     0.00000000000000    -3.84181321210000     2.44795122230000
H   10   1     0.00000000000000     4.03380938640000    -2.20342066170000
H   11   1     0.00000000000000    -4.03380938640000    -2.20342066170000
[GTO]
1 0
 s    9 1.00
                 45840  9.2710633559608e-05
                  6868  0.00072253830719825
                  1563   0.003777958317554
                 442.4   0.015651973483129
                 144.3   0.053556514469119
                 52.18    0.14792082356863
                 20.34    0.30701630165403
                 8.381     0.4007558217013
                 3.529    0.21932211954942
 s    9 1.00
                 45840  -5.7338677874064e-05
                  6868  -0.00045584248909881
                  1563  -0.0023623535284115
                 442.4  -0.0099711960822998
                 144.3  -0.034305730972053
                 52.18   -0.10145505663037
                 20.34   -0.22957546540607
                 8.381   -0.42064227475192
                 3.529   -0.33359642787131
 s    1 1.00
                 1.054                   1
 s    1 1.00
                0.4118                   1
 s    1 1.00
                0.1552                   1
 p    3 1.00
                 49.33   0.031126097368555
                 11.37    0.21355664346739
                 3.435    0.83836255894469
 p    1 1.00
                 1.182                   1
 p    1 1.00
                0.4173                   1
 p    1 1.00
                0.1428                   1
 d    1 1.00
                 2.837                   1
 d    1 1.00
                 0.968                   1
 d    1 1.00
                 0.335                   1
 f    1 1.00
                 2.027                   1
 f    1 1.00
                 0.685                   1
 g    1 1.00
                 1.427                   1

2 0
 s    9 1.00
                 33980  9.1634545701884e-05
                  5089  0.00070890901290249
                  1157   0.003718751398649
                 326.6   0.015467105736054
                 106.1   0.053298075488517
                 38.11    0.14806833520486
                 14.75     0.3077621740375
                 6.035    0.40212964454196
                  2.53    0.21856450306747
 s    9 1.00
                 33980  -5.5710360210471e-05
                  5089  -0.00044275075746216
                  1157  -0.0023017175139589
                 326.6  -0.0097463809126108
                 106.1  -0.033754614039102
                 38.11   -0.10016136340998
                 14.75   -0.22628082255382
                 6.035   -0.41487505248738
                  2.53   -0.34604636850945
 s    1 1.00
                0.7355                   1
 s    1 1.00
                0.2905                   1
 s    1 1.00
                0.1111                   1
 p    3 1.00
                 34.51   0.031687855209339
                 7.915     0.2128943072562
                 2.368    0.83958675201643
 p    1 1.00
                0.8132                   1
 p    1 1.00
                 0.289                   1
 p    1 1.00
                0.1007                   1
 d    1 1.00
                 1.848                   1
 d    1 1.00
                 0.649                   1
 d    1 1.00
                 0.228                   1
 f    1 1.00
                 1.419                   1
 f    1 1.00
                 0.485                   1
 g    1 1.00
                 1.011                   1

3 0
 s    9 1.00
                 33980  9.1634545701884e-05
                  5089  0.00070890901290249
                  1157   0.003718751398649
                 326.6   0.015467105736054
                 106.1   0.053298075488517
                 38.11    0.14806833520486
                 14.75     0.3077621740375
                 6.035    0.40212964454196
                  2.53    0.21856450306747
 s    9 1.00
                 33980  -5.5710360210471e-05
                  5089  -0.00044275075746216
                  1157  -0.0023017175139589
                 326.6  -0.0097463809126108
                 106.1  -0.033754614039102
                 38.11   -0.10016136340998
                 14.75   -0.22628082255382
                 6.035   -0.41487505248738
                  2.53   -0.34604636850945
 s    1 1.00
                0.7355                   1
 s    1 1.00
                0.2905                   1
 s    1 1.00
                0.1111                   1
 p    3 1.00
                 34.51   0.031687855209339
                 7.915     0.2128943072562
                 2.368    0.83958675201643
 p    1 1.00
                0.8132                   1
 p    1 1.00
                 0.289                   1
 p    1 1.00
                0.1007                   1
 d    1 1.00
                 1.848                   1
 d    1 1.00
                 0.649                   1
 d    1 1.00
                 0.228                   1
 f    1 1.00
                 1.419                   1
 f    1 1.00
                 0.485                   1
 g    1 1.00
                 1.011                   1

4 0
 s    9 1.00
                 33980  9.1634545701884e-05
                  5089  0.00070890901290249
                  1157   0.003718751398649
                 326.6   0.015467105736054
                 106.1   0.053298075488517
                 38.11    0.14806833520486
                 14.75     0.3077621740375
                 6.035    0.40212964454196
                  2.53    0.21856450306747
 s    9 1.00
                 33980  -5.5710360210471e-05
                  5089  -0.00044275075746216
                  1157  -0.0023017175139589
                 326.6  -0.0097463809126108
                 106.1  -0.033754614039102
                 38.11   -0.10016136340998
                 14.75   -0.22628082255382
                 6.035   -0.41487505248738
                  2.53   -0.34604636850945
 s    1 1.00
                0.7355                   1
 s    1 1.00
                0.2905                   1
 s    1 1.00
                0.1111                   1
 p    3 1.00
                 34.51   0.031687855209339
                 7.915     0.2128943072562
                 2.368    0.83958675201643
 p    1 1.00
                0.8132                   1
 p    1 1.00
                 0.289                   1
 p    1 1.00
                0.1007                   1
 d    1 1.00
                 1.848                   1
 d    1 1.00
                 0.649                   1
 d    1 1.00
                 0.228                   1
 f    1 1.00
                 1.419                   1
 f    1 1.00
                 0.485                   1
 g    1 1.00
                 1.011                   1

5 0
 s    9 1.00
                 33980  9.1634545701884e-05
                  5089  0.00070890901290249
                  1157   0.003718751398649
                 326.6   0.015467105736054
                 106.1   0.053298075488517
                 38.11    0.14806833520486
                 14.75     0.3077621740375
                 6.035    0.40212964454196
                  2.53    0.21856450306747
 s    9 1.00
                 33980  -5.5710360210471e-05
                  5089  -0.00044275075746216
                  1157  -0.0023017175139589
                 326.6  -0.0097463809126108
                 106.1  -0.033754614039102
                 38.11   -0.10016136340998
                 14.75   -0.22628082255382
                 6.035   -0.41487505248738
                  2.53   -0.34604636850945
 s    1 1.00
                0.7355                   1
 s    1 1.00
                0.2905                   1
 s    1 1.00
                0.1111                   1
 p    3 1.00
                 34.51   0.031687855209339
                 7.915     0.2128943072562
                 2.368    0.83958675201643
 p    1 1.00
                0.8132                   1
 p    1 1.00
                 0.289                   1
 p    1 1.00
                0.1007                   1
 d    1 1.00
                 1.848                   1
 d    1 1.00
                 0.649                   1
 d    1 1.00
                 0.228                   1
 f    1 1.00
                 1.419                   1
 f    1 1.00
                 0.485                   1
 g    1 1.00
                 1.011                   1

6 0
 s    9 1.00
                 33980  9.1634545701884e-05
                  5089  0.00070890901290249
                  1157   0.003718751398649
                 326.6   0.015467105736054
                 106.1   0.053298075488517
                 38.11    0.14806833520486
                 14.75     0.3077621740375
                 6.035    0.40212964454196
                  2.53    0.21856450306747
 s    9 1.00
                 33980  -5.5710360210471e-05
                  5089  -0.00044275075746216
                  1157  -0.0023017175139589
                 326.6  -0.0097463809126108
                 106.1  -0.033754614039102
                 38.11   -0.10016136340998
                 14.75   -0.22628082255382
                 6.035   -0.41487505248738
                  2.53   -0.34604636850945
 s    1 1.00
                0.7355                   1
 s    1 1.00
                0.2905                   1
 s    1 1.00
                0.1111                   1
 p    3 1.00
                 34.51   0.031687855209339
                 7.915     0.2128943072562
                 2.368    0.83958675201643
 p    1 1.00
                0.8132                   1
 p    1 1.00
                 0.289                   1
 p    1 1.00
                0.1007                   1
 d    1 1.00
                 1.848                   1
 d    1 1.00
                 0.649                   1
 d    1 1.00
                 0.228                   1
 f    1 1.00
                 1.419                   1
 f    1 1.00
                 0.485                   1
 g    1 1.00
                 1.011                   1

7 0
 s    3 1.00
                 82.64   0.022950757792906
                 12.41    0.17554011805411
                 2.824    0.86470355096212
 s    1 1.00
                0.7977                   1
 s    1 1.00
                0.2581                   1
 s    1 1.00
               0.08989                   1
 p    1 1.00
                 2.292                   1
 p    1 1.00
                 0.838                   1
 p    1 1.00
                 0.292                   1
 d    1 1.00
                 2.062                   1
 d    1 1.00
                 0.662                   1
 f    1 1.00
                 1.397                   1

8 0
 s    3 1.00
                 82.64   0.022950757792906
                 12.41    0.17554011805411
                 2.824    0.86470355096212
 s    1 1.00
                0.7977                   1
 s    1 1.00
                0.2581                   1
 s    1 1.00
               0.08989                   1
 p    1 1.00
                 2.292                   1
 p    1 1.00
                 0.838                   1
 p    1 1.00
                 0.292                   1
 d    1 1.00
                 2.062                   1
 d    1 1.00
                 0.662                   1
 f    1 1.00
                 1.397                   1

9 0
 s    3 1.00
                 82.64   0.022950757792906
                 12.41    0.17554011805411
                 2.824    0.86470355096212
 s    1 1.00
                0.7977                   1
 s    1 1.00
                0.2581                   1
 s    1 1.00
               0.08989                   1
 p    1 1.00
                 2.292                   1
 p    1 1.00
                 0.838                   1
 p    1 1.00
                 0.292                   1
 d    1 1.00
                 2.062                   1
 d    1 1.00
                 0.662                   1
 f    1 1.00
                 1.397                   1

10 0
 s    3 1.00
                 82.64   0.022950757792906
                 12.41    0.17554011805411
                 2.824    0.86470355096212
 s    1 1.00
                0.7977                   1
 s    1 1.00
                0.2581                   1
 s    1 1.00
               0.08989                   1
 p    1 1.00
                 2.292                   1
 p    1 1.00
                 0.838                   1
 p    1 1.00
                 0.292                   1
 d    1 1.00
                 2.062                   1
 d    1 1.00
                 0.662                   1
 f    1 1.00
                 1.397                   1

11 0
 s    3 1.00
                 82.64   0.022950757792906
                 12.41    0.17554011805411
                 2.824    0.86470355096212
 s    1 1.00
                0.7977                   1
 s    1 1.00
                0.2581                   1
 s    1 1.00
               0.08989                   1
 p    1 1.00
                 2.292                   1
 p    1 1.00
                 0.838                   1
 p    1 1.00
                 0.292                   1
 d    1 1.00
                 2.062                   1
 d    1 1.00
                 0.662                   1
 f    1 1.00
                 1.397                   1

[5d]
[7f]
[9g]

[MO]
 Sym= A
 Ene=    -15.00004748
 Spin= Alpha
 Occup=    2.00000
   1      -0.1542388862012
   2      0.22649174945121
   3        1.005556201352
   4     -0.42917567900507
   5      -0.3806386758521
   6    3.9712617712157e-17
   7    3.1580131971045e-15
   8      0.25521018438396
   9    -1.6171267215914e-16
  10    -1.1365799572035e-15
  11     0.099765242196937
  12    -3.1572485601424e-16
  13    4.1731802850094e-13
  14      0.16898302426997
  15    1.3275633004681e-16
  16    1.888162848751e-13
  17     0.064502660108049
  18    -0.029767172791964
  19    -9.8695661039047e-17
  20    6.3849468078809e-16
  21    -0.0081419077944267
  22    -2.1217865918976e-16
  23    -0.075561726152453
  24    3.1876675401003e-16
  25    -1.6595831651862e-14
  26    -0.0086586738651067
  27    1.8958834604483e-17
  28     0.032296463951908
  29    -1.0140650372957e-16
  30    -9.1469772234993e-14
  31      0.10678465383961
  32    -3.4514929992426e-16
  33     0.011146603006007
  34    -1.3245901056356e-17
  35    2.0280315509982e-15
  36    -4.9646542384978e-05
  37    -3.5007074925695e-17
  38    -3.5448133274056e-17
  39    -7.094223113074e-16
  40    -6.3035775662962e-07
  41    4.7693947311254e-18
  42    -2.4924681040223e-14
  43    -0.032206876942405
  44    2.7257154603047e-17
  45    1.0993210039029e-17
  46    -1.3739564236912e-14
  47    0.00059348615098029
  48    4.0982191693182e-18
  49    1.7025477220808e-15
  50    0.0099236220335268
  51    -9.4860014613857e-18
  52    -1.0066580354074e-17
  53    2.9319097422391e-16
  54    -0.0011250627781357
  55    7.2681540500449e-18
  56     0.042714874029804
  57    -0.050807568011322
  58      -0.2432323043928
  59      0.19300539001173
  60      0.20163572709138
  61    1.772512412295e-17
  62    1.2781068238506e-14
  63    -0.094855255184815
  64    9.8322108903785e-18
  65    4.130062977226e-16
  66    -0.095366347869472
  67    3.4371181441585e-17
  68    -1.9391000833685e-12
  69     0.039200342593148
  70    8.1784910530718e-18
  71    -1.0274789935677e-12
  72     0.080420694703975
  73    -0.017329952663984
  74    4.1245854706623e-18
  75    1.8134513453012e-14
  76    0.0024684159333113
  77    -1.0158656890345e-18
  78    -0.027899536113026
  79    6.2674674017582e-18
  80    -1.6241097407534e-13
  81    0.0070080685553465
  82    1.1537872743302e-18
  83      0.11574103934912
  84    1.631241475594e-17
  85    -5.9630556304837e-13
  86     0.033367998816719
  87    -4.3038311017267e-18
  88    -0.00015388769123029
  89    1.203218074055e-18
  90    -4.1546907981221e-15
  91    0.0047018341549885
  92    -6.7241168133134e-19
  93    -5.7397255404848e-19
  94    2.1018186961033e-15
  95    -0.0084622741742806
  96    4.6716448766213e-18
  97    8.4490464847972e-14
  98     0.008197171567412
  99    1.8200516419732e-18
 100    -8.2884593613769e-18
 101    1.3912207374818e-13
 102    0.0016221320790895
 103    3.6356336528454e-19
 104    1.4429171716204e-14
 105      0.00532742192299
 106    -1.0624960389348e-18
 107    -1.709635668392e-18
 108    1.0690614442693e-14
 109    -0.0026014420170393
 110    -3.0344501783673e-19
 111     0.035134305443708
 112      -0.0290043291868
 113      -0.1969756413246
 114      0.18728528201836
 115      0.22659013558432
 116    -4.127160698303e-16
 117      0.16019645748612
 118    -0.029738328461976
 119    -3.5453758089075e-16
 120      0.11131816790231
 121    -0.0070392991899779
 122    2.6692962902864e-17
 123     -0.11551074310594
 124      0.10045406160858
 125    1.2532995376977e-17
 126    -0.028062505213181
 127    -0.031281309015242
 128     0.023047768478275
 129     1.03994120582e-17
 130    -0.010947747290828
 131     0.022888902543519
 132    7.4263370632263e-17
 133      0.02856773795572
 134    3.5849855358773e-17
 135    -0.057048283360508
 136       0.0213952034999
 137    9.163463123088e-17
 138     0.019499245317792
 139    -2.5545429231627e-17
 140    -0.071876747437755
 141    -0.041109307901089
 142    -3.7234240565394e-17
 143    -0.0074092700737368
 144    -8.7778308804371e-18
 145    -0.0065632427734942
 146    -0.002779575967032
 147    -3.4571052325408e-18
 148    2.9738711071816e-17
 149    -0.0068355098006947
 150    -0.010053007445807
 151    -7.8919926425731e-19
 152    0.0065336911703335
 153    -0.014720268922525
 154    -1.6906493603321e-17
 155    5.5038611545043e-18
 156    -0.0096138242613255
 157    0.0030871368819418
 158    1.5891709768931e-18
 159    -0.00080194247287531
 160    0.0015985801689136
 161    -2.5587648464728e-18
 162    -1.0923958891346e-17
 163    -0.0017222917234164
 164    -0.0077353287908545
 165    -8.8109753710469e-18
 166     0.035134305443679
 167    -0.029004329186834
 168     -0.19697564132465
 169       0.1872852820176
 170      0.22659013558731
 171     3.90515928239e-16
 172     -0.16019645748612
 173    -0.029738328461967
 174    2.8636570881832e-16
 175     -0.11131816790236
 176    -0.0070392991900042
 177    9.6986721004437e-17
 178      0.11551074310722
 179       0.1004540616092
 180    1.5726392429476e-17
 181     0.028062505214817
 182    -0.031281309015997
 183     0.023047768478266
 184    -2.7979814789618e-17
 185     0.010947747290824
 186     0.022888902543512
 187    4.1693339568673e-17
 188     0.028567737955748
 189    -6.2508426666681e-17
 190     0.057048283360557
 191     0.021395203499947
 192    2.9940605618878e-17
 193      0.01949924531753
 194    -5.6002598220297e-18
 195     0.071876747437517
 196    -0.041109307901652
 197    4.4441759765118e-17
 198    -0.0074092700737301
 199    1.2354660916183e-17
 200     0.006563242773489
 201    -0.002779575967029
 202    -1.4193299472634e-17
 203    -4.4322518737171e-18
 204    0.0068355098006977
 205    -0.010053007445894
 206    2.6453849615212e-17
 207    -0.0065336911700715
 208    -0.014720268922576
 209    -2.9953166154838e-17
 210    6.7251402564814e-18
 211    0.0096138242612522
 212    0.0030871368819517
 213    -4.9868280348947e-18
 214    0.00080194247285856
 215     0.001598580168917
 216    2.5425091588348e-18
 217    1.4633371691395e-17
 218    0.0017222917234008
 219    -0.0077353287908526
 220    1.3843572352158e-17
 221    -0.047937415607651
 222     0.054522879727068
 223      0.25119145259832
 224    -0.038763858830692
 225     -0.24086623828994
 226    -1.2323364538635e-17
 227    -0.052045207517537
 228      0.11988353180124
 229    -1.1073111755041e-17
 230    -0.068437907695937
 231      0.11628403944474
 232    -2.309122801917e-17
 233     0.022924843625295
 234    -0.014225722440655
 235    -9.5993003986598e-18
 236     0.043259777172026
 237    -0.040534926340679
 238     0.011136335970322
 239    -4.5937991358675e-18
 240    -0.018374531103586
 241    -0.0069331324319006
 242    6.0439613279354e-19
 243     0.018174532487555
 244    -5.9603874003037e-18
 245    -0.046568709471875
 246    -0.021935034317157
 247    8.2109862418538e-18
 248     0.044575869613708
 249    -1.0403962456949e-17
 250    -0.0020951117391155
 251     0.066870751796259
 252    9.3949659425421e-18
 253    0.0069994152014785
 254    -2.8934060991767e-18
 255    -0.0037551461570846
 256    -0.0035854383662973
 257    1.8134111144843e-18
 258    2.5415022958682e-20
 259    0.0018708077016544
 260     0.002204097404929
 261    -6.8858210355056e-18
 262    -0.018058483841105
 263    -0.0069133693094302
 264    -6.4961871109979e-18
 265    -4.4040315692839e-19
 266    -0.0052565633157074
 267    0.0042152897844565
 268    -2.8488636534845e-18
 269    -0.0036257870968549
 270    -0.0020933023415612
 271    3.2045784417883e-18
 272    1.1582014936458e-18
 273    0.0012634858841083
 274    0.0015533143637778
 275    -8.6879627058121e-19
 276    -0.047937415607604
 277     0.054522879727134
 278      0.25119145259891
 279    -0.038763858833734
 280     -0.24086623829571
 281    7.7767344637834e-17
 282     0.052045207517533
 283      0.11988353180124
 284    6.5791967905219e-17
 285     0.068437907695993
 286      0.11628403944462
 287    -1.3148857252151e-17
 288    -0.022924843626527
 289    -0.014225722438357
 290    -1.0330664730932e-17
 291    -0.043259777174065
 292    -0.040534926340541
 293     0.011136335970326
 294    1.3451809470899e-17
 295      0.01837453110358
 296    -0.0069331324319239
 297    1.0216749951325e-17
 298     0.018174532487507
 299    1.2706901410432e-17
 300     0.046568709471914
 301    -0.021935034316933
 302    2.3001151232087e-17
 303      0.04457586961434
 304    -4.424070815329e-18
 305    0.0020951117389763
 306     0.066870751797401
 307    -3.0633195232967e-17
 308    0.0069994152014563
 309    6.6623778997331e-18
 310    0.0037551461570935
 311    -0.0035854383663119
 312    4.0760005556881e-18
 313    -3.9702405728155e-18
 314    -0.0018708077016518
 315    0.0022040974049141
 316    -5.358158056312e-18
 317     0.018058483840789
 318    -0.0069133693096207
 319    7.2631257209104e-18
 320    -1.2313442465959e-17
 321    0.0052565633156953
 322    0.0042152897844756
 323    1.5984418756363e-18
 324    0.0036257870968445
 325    -0.0020933023415404
 326    1.984686909083e-18
 327    -4.8034567874682e-18
 328    -0.001263485884107
 329    0.0015533143637559
 330    -2.8945265488473e-18
 331    -0.00067230342897768
 332    -0.0073423505260187
 333      -0.1062312179178
 334     0.021788405532695
 335    9.735690109945e-19
 336    -6.9798648400924e-16
 337    -0.0026706870017423
 338    -3.1700387102455e-18
 339    -7.0538162375228e-15
 340    0.0081367384973749
 341    2.6609417190769e-18
 342    -1.4282587019671e-14
 343    -0.016661920055849
 344     0.000587323966098
 345    1.4410709002749e-19
 346    -5.3703341748612e-15
 347    6.5819882499593e-06
 348    -2.8968434137326e-19
 349    0.0085429419196156
 350    -1.06810770148e-18
 351    1.9520820085656e-14
 352    -0.0013237319602122
 353    1.5583242981701e-18
 354    0.0030521415910744
 355    -1.6151564836161e-21
 356    9.7483580349584e-16
 357    -0.00067263196123558
 358    3.2981734711436e-19
 359    1.6763444344253e-19
 360    -3.3590636510458e-15
 361    -0.0006053030447052
 362    -0.0032542350126726
 363     0.028060088060054
 364    0.0006541427523615
 365    -1.8102807642999e-19
 366    0.00052876776528736
 367    0.0017434720585785
 368    -7.3426247654568e-18
 369    -0.0056383814407451
 370    -0.0096362966607995
 371    1.4497318021838e-17
 372    -0.018613739412592
 373     -0.00531705728668
 374    -5.1510824286581e-07
 375    1.4969058583586e-18
 376    0.00014521331693732
 377    -0.0013356343131669
 378    1.1501048016064e-18
 379     -0.00245286040088
 380    3.6951557529483e-18
 381     0.011787749764923
 382    -0.0049436824623771
 383    5.2955426736456e-18
 384    0.0018907001986337
 385    -2.0394132891646e-18
 386    0.00026446576647207
 387    0.0029914946816142
 388    -1.4807464930106e-18
 389    1.4383861706805e-18
 390    0.0021720834862445
 391    -0.00060530304471303
 392    -0.0032542350125955
 393     0.028060088060132
 394    0.00065414275290297
 395    1.9377873124388e-18
 396    -0.00052876776529789
 397    0.0017434720585815
 398    -6.7764531548146e-18
 399     0.005638381440858
 400    -0.0096362966608259
 401    8.2743363530804e-18
 402     0.018613739412725
 403    -0.0053170572866624
 404    -5.1510824356128e-07
 405    1.8480289051656e-18
 406    -0.00014521331694145
 407    -0.0013356343131686
 408    1.0486565493092e-18
 409    -0.002452860400891
 410    -5.51544360162e-18
 411    -0.011787749764928
 412    -0.0049436824624251
 413    -4.8161589233567e-18
 414    0.0018907001986286
 415    -1.0333413403985e-19
 416    -0.0002644657664736
 417    0.0029914946816163
 418    1.1625526265223e-18
 419    2.737536406488e-20
 420    -0.0021720834862474
 421    0.0023317961001572
 422    -0.011962745105442
 423     0.043570719175753
 424    -0.0091199837121966
 425    6.9739668750078e-19
 426    -0.0015142565987925
 427    0.0014452171369919
 428    -3.5430575716196e-18
 429     0.011201114981891
 430    -0.010672104458911
 431    -2.0566600345933e-18
 432    0.0063317246320381
 433     0.011902368798422
 434    -0.00010922650365285
 435    -4.7302008479354e-19
 436    0.00092878337809974
 437    0.00087606074324306
 438    4.0585535344784e-19
 439    0.00055648232798295
 440    1.4320015677206e-18
 441    0.0064669742342229
 442    0.0056541863394355
 443    1.8916660377079e-18
 444    0.00062636675959168
 445    4.8687620737262e-19
 446    0.00025317836506551
 447    0.0016923205396913
 448    1.1882211660351e-19
 449    7.1602842349495e-19
 450    -0.0018178286211269
 451    0.0023317961001372
 452    -0.011962745105259
 453     0.043570719177913
 454    -0.0091199837126775
 455    3.2360739117931e-19
 456    0.0015142565987828
 457     0.001445217136987
 458    5.4346421091967e-19
 459    -0.011201114981757
 460    -0.010672104458814
 461    -1.579316518641e-17
 462    -0.0063317246314825
 463     0.011902368798829
 464    -0.00010922650365157
 465    1.0479177608034e-18
 466    -0.00092878337809582
 467    0.00087606074324021
 468    5.4754449713747e-19
 469    0.00055648232797181
 470    -4.3347980462545e-18
 471     -0.00646697423417
 472    0.0056541863393901
 473    2.354569588239e-19
 474    0.00062636675959047
 475    -3.0772879309806e-19
 476    -0.00025317836506519
 477    0.0016923205396956
 478    -7.4667355522179e-19
 479    -1.5686981202834e-18
 480    0.0018178286211236
 Sym= A
 Ene=    -14.73510067
 Spin= Alpha
 Occup=    2.00000
   1    -0.053586711935896
   2     0.082182653450632
   3      0.37038793056616
   4     -0.14028649649287
   5     -0.10517797263945
   6    -2.8457636083838e-16
   7    -1.8630924113629e-16
   8     0.065116023650316
   9    -3.9329474799705e-16
  10    1.9968931631656e-14
  11    0.0093007069448892
  12    4.7883534235986e-16
  13    -7.6214847278397e-13
  14     0.041926412382947
  15    1.0841661895199e-17
  16    -2.2610809339119e-13
  17     0.013778710730508
  18    -0.0039544185159865
  19    1.215310539009e-16
  20    -2.8949987364452e-15
  21    0.0022790728396634
  22    -4.7829454146419e-17
  23    -0.0050205978008525
  24    -4.2794867736124e-16
  25    3.2234935948946e-14
  26     0.015746059398003
  27    4.9483242611486e-16
  28     0.022620824834373
  29    5.4864823121744e-16
  30    1.8564511362871e-13
  31     0.039783339276917
  32    2.3474005486588e-16
  33    -0.00034540438950609
  34    -3.5712013965702e-16
  35    -3.1752092408424e-15
  36    -0.003550275433534
  37    -9.0853452297183e-17
  38    -5.5749566978978e-17
  39    -2.2842785026797e-16
  40    -0.014364962979877
  41    1.3004111450069e-16
  42    5.2162008689463e-14
  43    -0.023171461932416
  44     7.84930599617e-17
  45    7.3596483836697e-17
  46    4.2005290691851e-14
  47    0.0037823480578355
  48    8.6886788488042e-18
  49    -6.5098835651811e-15
  50    0.0051908680913602
  51    4.9571725772733e-17
  52    5.4570634526536e-18
  53    -2.7404567680696e-15
  54    -0.0040892009969561
  55    -2.3090350191691e-17
  56    -0.083520572973428
  57      0.09623673198358
  58      0.43089876921578
  59     0.094091691614242
  60     -0.23941882436343
  61    3.3838533990451e-17
  62    -1.2429719578877e-14
  63      0.22415066622817
  64    2.4410113095604e-17
  65     1.89112435219e-14
  66       0.2259402875257
  67    -3.4163155307607e-17
  68    2.1583398814987e-12
  69     0.057872094831424
  70    -9.4279439723641e-18
  71    1.1020437100321e-12
  72    -0.092538030294786
  73     0.037563481844925
  74    4.5952929000604e-18
  75    -1.8397436834014e-14
  76    0.00060848302928277
  77    1.1528063022217e-17
  78     0.087317308250882
  79    9.1978061378974e-18
  80    1.786774522361e-13
  81    -0.020110261843154
  82    1.5532750819615e-18
  83    -0.029003650366909
  84    -1.3794160595017e-17
  85    6.8481576522727e-13
  86     0.023695181650186
  87    1.5027441201671e-17
  88    0.0026850534016678
  89    1.0706699994114e-18
  90    2.7256182586412e-15
  91     -0.00796162670667
  92    8.9893226472944e-18
  93    -1.6685159801772e-18
  94    -1.542524265127e-15