[Molden Format]
made by pyscf v[2.14.0]
[Atoms] (AU)
N   1   7     0.00000000000000     0.00000000000000     2.63881356090000
C   2   6     0.00000000000000     0.00000000000000    -2.58609020210000
C   3   6     0.00000000000000     2.13142209640000     1.35323287810000
C   4   6     0.00000000000000    -2.13142209640000     1.35323287810000
C   5   6     0.00000000000000     2.24291593780000    -1.25572301010000
C   6   6     0.00000000000000    -2.24291593780000    -1.25572301010000
H   7   1     0.00000000000000     0.00000000000000    -4.61471119720000
H   8   1     0.00000000000000     3.84181321210000     2.44795122230000
H   9   1     0.00000000000000    -3.84181321210000     2.44795122230000
H   10   1     0.00000000000000     4.03380938640000    -2.20342066170000
H   11   1     0.00000000000000    -4.03380938640000    -2.20342066170000
[GTO]
1 0
 s    9 1.00
                 45840  9.2710633559608e-05
                  6868  0.00072253830719825
                  1563   0.003777958317554
                 442.4   0.015651973483129
                 144.3   0.053556514469119
                 52.18    0.14792082356863
                 20.34    0.30701630165403
                 8.381     0.4007558217013
                 3.529    0.21932211954942
 s    9 1.00
                 45840  -5.7338677874064e-05
                  6868  -0.00045584248909881
                  1563  -0.0023623535284115
                 442.4  -0.0099711960822998
                 144.3  -0.034305730972053
                 52.18   -0.10145505663037
                 20.34   -0.22957546540607
                 8.381   -0.42064227475192
                 3.529   -0.33359642787131
 s    1 1.00
                 1.054                   1
 s    1 1.00
                0.4118                   1
 s    1 1.00
                0.1552                   1
 p    3 1.00
                 49.33   0.031126097368555
                 11.37    0.21355664346739
                 3.435    0.83836255894469
 p    1 1.00
                 1.182                   1
 p    1 1.00
                0.4173                   1
 p    1 1.00
                0.1428                   1
 d    1 1.00
                 2.837                   1
 d    1 1.00
                 0.968                   1
 d    1 1.00
                 0.335                   1
 f    1 1.00
                 2.027                   1
 f    1 1.00
                 0.685                   1
 g    1 1.00
                 1.427                   1

2 0
 s    9 1.00
                 33980  9.1634545701884e-05
                  5089  0.00070890901290249
                  1157   0.003718751398649
                 326.6   0.015467105736054
                 106.1   0.053298075488517
                 38.11    0.14806833520486
                 14.75     0.3077621740375
                 6.035    0.40212964454196
                  2.53    0.21856450306747
 s    9 1.00
                 33980  -5.5710360210471e-05
                  5089  -0.00044275075746216
                  1157  -0.0023017175139589
                 326.6  -0.0097463809126108
                 106.1  -0.033754614039102
                 38.11   -0.10016136340998
                 14.75   -0.22628082255382
                 6.035   -0.41487505248738
                  2.53   -0.34604636850945
 s    1 1.00
                0.7355                   1
 s    1 1.00
                0.2905                   1
 s    1 1.00
                0.1111                   1
 p    3 1.00
                 34.51   0.031687855209339
                 7.915     0.2128943072562
                 2.368    0.83958675201643
 p    1 1.00
                0.8132                   1
 p    1 1.00
                 0.289                   1
 p    1 1.00
                0.1007                   1
 d    1 1.00
                 1.848                   1
 d    1 1.00
                 0.649                   1
 d    1 1.00
                 0.228                   1
 f    1 1.00
                 1.419                   1
 f    1 1.00
                 0.485                   1
 g    1 1.00
                 1.011                   1

3 0
 s    9 1.00
                 33980  9.1634545701884e-05
                  5089  0.00070890901290249
                  1157   0.003718751398649
                 326.6   0.015467105736054
                 106.1   0.053298075488517
                 38.11    0.14806833520486
                 14.75     0.3077621740375
                 6.035    0.40212964454196
                  2.53    0.21856450306747
 s    9 1.00
                 33980  -5.5710360210471e-05
                  5089  -0.00044275075746216
                  1157  -0.0023017175139589
                 326.6  -0.0097463809126108
                 106.1  -0.033754614039102
                 38.11   -0.10016136340998
                 14.75   -0.22628082255382
                 6.035   -0.41487505248738
                  2.53   -0.34604636850945
 s    1 1.00
                0.7355                   1
 s    1 1.00
                0.2905                   1
 s    1 1.00
                0.1111                   1
 p    3 1.00
                 34.51   0.031687855209339
                 7.915     0.2128943072562
                 2.368    0.83958675201643
 p    1 1.00
                0.8132                   1
 p    1 1.00
                 0.289                   1
 p    1 1.00
                0.1007                   1
 d    1 1.00
                 1.848                   1
 d    1 1.00
                 0.649                   1
 d    1 1.00
                 0.228                   1
 f    1 1.00
                 1.419                   1
 f    1 1.00
                 0.485                   1
 g    1 1.00
                 1.011                   1

4 0
 s    9 1.00
                 33980  9.1634545701884e-05
                  5089  0.00070890901290249
                  1157   0.003718751398649
                 326.6   0.015467105736054
                 106.1   0.053298075488517
                 38.11    0.14806833520486
                 14.75     0.3077621740375
                 6.035    0.40212964454196
                  2.53    0.21856450306747
 s    9 1.00
                 33980  -5.5710360210471e-05
                  5089  -0.00044275075746216
                  1157  -0.0023017175139589
                 326.6  -0.0097463809126108
                 106.1  -0.033754614039102
                 38.11   -0.10016136340998
                 14.75   -0.22628082255382
                 6.035   -0.41487505248738
                  2.53   -0.34604636850945
 s    1 1.00
                0.7355                   1
 s    1 1.00
                0.2905                   1
 s    1 1.00
                0.1111                   1
 p    3 1.00
                 34.51   0.031687855209339
                 7.915     0.2128943072562
                 2.368    0.83958675201643
 p    1 1.00
                0.8132                   1
 p    1 1.00
                 0.289                   1
 p    1 1.00
                0.1007                   1
 d    1 1.00
                 1.848                   1
 d    1 1.00
                 0.649                   1
 d    1 1.00
                 0.228                   1
 f    1 1.00
                 1.419                   1
 f    1 1.00
                 0.485                   1
 g    1 1.00
                 1.011                   1

5 0
 s    9 1.00
                 33980  9.1634545701884e-05
                  5089  0.00070890901290249
                  1157   0.003718751398649
                 326.6   0.015467105736054
                 106.1   0.053298075488517
                 38.11    0.14806833520486
                 14.75     0.3077621740375
                 6.035    0.40212964454196
                  2.53    0.21856450306747
 s    9 1.00
                 33980  -5.5710360210471e-05
                  5089  -0.00044275075746216
                  1157  -0.0023017175139589
                 326.6  -0.0097463809126108
                 106.1  -0.033754614039102
                 38.11   -0.10016136340998
                 14.75   -0.22628082255382
                 6.035   -0.41487505248738
                  2.53   -0.34604636850945
 s    1 1.00
                0.7355                   1
 s    1 1.00
                0.2905                   1
 s    1 1.00
                0.1111                   1
 p    3 1.00
                 34.51   0.031687855209339
                 7.915     0.2128943072562
                 2.368    0.83958675201643
 p    1 1.00
                0.8132                   1
 p    1 1.00
                 0.289                   1
 p    1 1.00
                0.1007                   1
 d    1 1.00
                 1.848                   1
 d    1 1.00
                 0.649                   1
 d    1 1.00
                 0.228                   1
 f    1 1.00
                 1.419                   1
 f    1 1.00
                 0.485                   1
 g    1 1.00
                 1.011                   1

6 0
 s    9 1.00
                 33980  9.1634545701884e-05
                  5089  0.00070890901290249
                  1157   0.003718751398649
                 326.6   0.015467105736054
                 106.1   0.053298075488517
                 38.11    0.14806833520486
                 14.75     0.3077621740375
                 6.035    0.40212964454196
                  2.53    0.21856450306747
 s    9 1.00
                 33980  -5.5710360210471e-05
                  5089  -0.00044275075746216
                  1157  -0.0023017175139589
                 326.6  -0.0097463809126108
                 106.1  -0.033754614039102
                 38.11   -0.10016136340998
                 14.75   -0.22628082255382
                 6.035   -0.41487505248738
                  2.53   -0.34604636850945
 s    1 1.00
                0.7355                   1
 s    1 1.00
                0.2905                   1
 s    1 1.00
                0.1111                   1
 p    3 1.00
                 34.51   0.031687855209339
                 7.915     0.2128943072562
                 2.368    0.83958675201643
 p    1 1.00
                0.8132                   1
 p    1 1.00
                 0.289                   1
 p    1 1.00
                0.1007                   1
 d    1 1.00
                 1.848                   1
 d    1 1.00
                 0.649                   1
 d    1 1.00
                 0.228                   1
 f    1 1.00
                 1.419                   1
 f    1 1.00
                 0.485                   1
 g    1 1.00
                 1.011                   1

7 0
 s    3 1.00
                 82.64   0.022950757792906
                 12.41    0.17554011805411
                 2.824    0.86470355096212
 s    1 1.00
                0.7977                   1
 s    1 1.00
                0.2581                   1
 s    1 1.00
               0.08989                   1
 p    1 1.00
                 2.292                   1
 p    1 1.00
                 0.838                   1
 p    1 1.00
                 0.292                   1
 d    1 1.00
                 2.062                   1
 d    1 1.00
                 0.662                   1
 f    1 1.00
                 1.397                   1

8 0
 s    3 1.00
                 82.64   0.022950757792906
                 12.41    0.17554011805411
                 2.824    0.86470355096212
 s    1 1.00
                0.7977                   1
 s    1 1.00
                0.2581                   1
 s    1 1.00
               0.08989                   1
 p    1 1.00
                 2.292                   1
 p    1 1.00
                 0.838                   1
 p    1 1.00
                 0.292                   1
 d    1 1.00
                 2.062                   1
 d    1 1.00
                 0.662                   1
 f    1 1.00
                 1.397                   1

9 0
 s    3 1.00
                 82.64   0.022950757792906
                 12.41    0.17554011805411
                 2.824    0.86470355096212
 s    1 1.00
                0.7977                   1
 s    1 1.00
                0.2581                   1
 s    1 1.00
               0.08989                   1
 p    1 1.00
                 2.292                   1
 p    1 1.00
                 0.838                   1
 p    1 1.00
                 0.292                   1
 d    1 1.00
                 2.062                   1
 d    1 1.00
                 0.662                   1
 f    1 1.00
                 1.397                   1

10 0
 s    3 1.00
                 82.64   0.022950757792906
                 12.41    0.17554011805411
                 2.824    0.86470355096212
 s    1 1.00
                0.7977                   1
 s    1 1.00
                0.2581                   1
 s    1 1.00
               0.08989                   1
 p    1 1.00
                 2.292                   1
 p    1 1.00
                 0.838                   1
 p    1 1.00
                 0.292                   1
 d    1 1.00
                 2.062                   1
 d    1 1.00
                 0.662                   1
 f    1 1.00
                 1.397                   1

11 0
 s    3 1.00
                 82.64   0.022950757792906
                 12.41    0.17554011805411
                 2.824    0.86470355096212
 s    1 1.00
                0.7977                   1
 s    1 1.00
                0.2581                   1
 s    1 1.00
               0.08989                   1
 p    1 1.00
                 2.292                   1
 p    1 1.00
                 0.838                   1
 p    1 1.00
                 0.292                   1
 d    1 1.00
                 2.062                   1
 d    1 1.00
                 0.662                   1
 f    1 1.00
                 1.397                   1

[6d]
[10f]
[15g]

[MO]
 Sym= A
 Ene=    -15.01516186
 Spin= Alpha
 Occup=    2.00000
   1     0.088252485961893
   2      0.56383077378278
   3      0.65289373295819
   4      0.92127040510431
   5      0.50011169897287
   6    6.278094330009e-16
   7    9.9267189351433e-15
   8      0.24898725686477
   9    1.5103543212315e-16
  10    4.4964112117427e-13
  11      0.12968748088579
  12    4.390839092995e-15
  13    -2.6828682373308e-12
  14    -0.033854277812554
  15    -3.4973157301116e-16
  16    -2.6590961881463e-13
  17    -0.059195619257409
  18     0.011849438893424
  19    0.0090991594477614
  20      -0.0461146573254
  21    -2.4192913970379e-17
  22    -8.5323288058971e-17
  23    2.0107901982721e-14
  24     -0.49687401185842
  25     -0.42060772551162
  26     -0.50959770407389
  27    -4.2588728793444e-16
  28    1.413700718691e-16
  29    -6.3186692518092e-14
  30     -0.16567939081528
  31     -0.14873581758429
  32     -0.16752578587176
  33    8.2001153566312e-17
  34    -1.3233171164935e-16
  35    2.797671237089e-13
  36    -5.3697924377749e-16
  37    2.8872462761633e-14
  38     0.017133340589663
  39    -5.2147034788322e-17
  40    2.3359033285379e-14
  41    -0.0049725375111343
  42    -1.0293934150689e-16
  43    4.2289858111561e-15
  44    0.0017426048227521
  45    -4.4826485014614e-17
  46    -2.2591819987314e-15
  47    5.6144153315569e-13
  48     0.019730703933471
  49    -9.9247618512226e-16
  50    3.6267179316659e-13
  51    -0.011253231479554
  52    -1.0743220809569e-15
  53    3.4846625974963e-13
  54    -0.0029977889896662
  55    4.280296231447e-17
  56      0.14131522729651
  57      0.11698163669974
  58     0.098915520766249
  59    5.3425469781321e-17
  60    -4.4417864826694e-17
  61    -1.2388145935842e-17
  62    9.4514885789589e-14
  63    -4.2083038350465e-17
  64    4.0675588810925e-14
  65     0.075289445111322
  66     0.079964647783219
  67     0.057633298085032
  68    1.4907104762668e-14
  69    -4.1782391451739e-17
  70    -2.8671496288785e-17
  71    -0.018539314260831
  72     -0.13938410539853
  73     -0.10941896326482
  74     -0.43999638738009
  75     -0.46310613673062
  76    7.7906652982535e-18
  77    -5.7904757826232e-15
  78    -0.099754126586429
  79    -4.2396389415103e-17
  80    -3.0833792965786e-12
  81    -0.076067787544988
  82    1.6767048231721e-16
  83    2.2532168780208e-11
  84      -0.1460031519686
  85    1.6413383427902e-17
  86    2.0437911641722e-12
  87     -0.12867832234343
  88     0.023803239940413
  89      0.02387316227471
  90    -0.016940130159934
  91    6.7897647012325e-18
  92    1.868070437895e-17
  93    -2.2404707172114e-13
  94      0.11955304521464
  95     0.087443085938482
  96       0.1658058814774
  97    -3.7649475527098e-17
  98    -9.2040512030873e-17
  99    1.6964875358529e-12
 100      0.07424913200224
 101     0.030429774042152
 102    -0.097928533576327
 103    2.7955466227663e-17
 104    5.5976349937154e-17
 105    5.2910745860644e-12
 106    -1.0887629743577e-18
 107    -1.0071178604751e-13
 108    -0.011714701412766
 109    2.2896719601316e-18
 110    -1.0856268901822e-13
 111    0.00075013767211402
 112    -2.4595115729167e-18
 113    -4.3050530249491e-14
 114    -0.0061160346572717
 115    -3.2321229628963e-20
 116    -6.9716516473701e-17
 117    -4.3152526777787e-12
 118     -0.04164185947042
 119    -4.4411062363951e-17
 120    -2.542829657624e-12
 121     0.024555425700136
 122    -2.2277090390422e-17
 123    -2.0006438295894e-12
 124     0.026042950458997
 125    -5.478516109769e-18
 126    -0.012229865843614
 127     0.010133554429945
 128    -0.049771457770086
 129    1.2687965395938e-17
 130    2.7955438825834e-17
 131    1.1275229413932e-17
 132    -2.1623349440769e-13
 133    3.0032454791354e-17
 134    -3.47066289654e-13
 135    -0.00044105672865065
 136    -0.015635475928152
 137    -0.021029040607752
 138    -1.9767009592149e-13
 139    1.311567337507e-17
 140    3.3837251148234e-18
 141    -0.012486156713054
 142    -0.097047367023367
 143    -0.083025191831245
 144     -0.28106580889131
 145     -0.26461949974864
 146    -2.0667144136941e-16
 147      0.16125310627208
 148    -0.035536199426687
 149    -1.9190394108623e-16
 150      0.13273560253547
 151     -0.02346559482642
 152    1.7024122786098e-16
 153      0.14006404123459
 154      0.11944516734314
 155    -1.7911550685495e-17
 156      0.06312355183601
 157     0.032642856249961
 158      0.01385635707814
 159    -0.037905189247303
 160     0.037203786624531
 161    6.9330291868903e-17
 162    1.1628235867285e-17
 163    -0.013624838455586
 164       0.1054381612492
 165      0.11446002842712
 166     0.086104198165452
 167    7.6980546029912e-17
 168    -1.5866874357359e-16
 169     0.012437586955405
 170     0.034008370819809
 171     0.032552093527682
 172     0.029746975014075
 173    -4.5541273273398e-17
 174    1.2253929554734e-17
 175     0.024489922410388
 176    4.7095376299531e-18
 177     0.021921091349319
 178    -0.0082491390766274
 179    -6.2428250908863e-17
 180    -0.0016043275771625
 181    0.0011300603022792
 182    -1.4065110371584e-17
 183    -0.0017921415879877
 184    0.0047838634522844
 185    2.6699081668165e-17
 186    -5.327062043749e-17
 187      0.02521808415846
 188    -0.023068485821371
 189    -9.4403678182798e-17
 190    -0.014738872034096
 191    -0.0091107135292466
 192    -4.9618212740322e-17
 193     0.023076255390865
 194     0.045162103056738
 195    4.3759917673946e-17
 196    -0.018252426995087
 197    -0.059387358572868
 198     0.011484045716578
 199    -1.1922677588907e-17
 200    4.3649977497793e-17
 201      6.6417815048e-17
 202    -0.011238017757468
 203    3.5949846233648e-17
 204    -0.010951676833559
 205    -0.013980968608269
 206    -0.0050467359625211
 207    -0.0081527307074147
 208    -0.0017543478850697
 209    6.8620704009132e-18
 210    1.5956050607375e-17
 211    -0.012486156713285
 212      -0.0970473670237
 213     -0.08302519183503
 214     -0.28106580888302
 215     -0.26461949974712
 216    2.1000469248724e-16
 217     -0.16125310627206
 218    -0.035536199426679
 219    1.1798894847766e-16
 220     -0.13273560253426
 221    -0.023465594824818
 222    -5.5417609369232e-18
 223     -0.14006404124174
 224      0.11944516733221
 225    1.0364682729651e-18
 226     -0.06312355183748
 227     0.032642856249259
 228     0.013856357078802
 229    -0.037905189247142
 230      0.03720378662495
 231     7.02174038627e-17
 232    -1.4244411893076e-17
 233     0.013624838455543
 234      0.10543816124563
 235      0.11446002842624
 236     0.086104198163273
 237    -1.7682692429309e-16
 238    -5.9936187813491e-17
 239    -0.012437586955274
 240     0.034008370819598
 241     0.032552093521729
 242     0.029746975014494
 243    -2.4661647384609e-19
 244    -6.1469539007304e-17
 245     -0.02448992240828
 246    -4.85459095029e-18
 247    -0.021921091349282
 248    -0.0082491390766387
 249    4.1054418054286e-17
 250    0.0016043275771876
 251    0.0011300603023568
 252    8.5984488650459e-18
 253    0.0017921415880091
 254    0.0047838634522929
 255    4.4944467555337e-18
 256    -6.0067397669013e-18
 257    -0.025218084156546
 258    -0.023068485819548
 259    -4.1356046563561e-17
 260     0.014738872035161
 261    -0.0091107135281983
 262    -1.9337805693406e-17
 263    -0.023076255390625
 264     0.045162103057676
 265    -1.6202095331617e-17
 266     -0.01825242699365
 267    -0.059387358572841
 268     0.011484045717528
 269    7.5314837333962e-17
 270    6.8724626278469e-18
 271    8.6718543549853e-17
 272     0.011238017757225
 273    3.5602151907178e-18
 274     0.010951676833499
 275    -0.013980968607829
 276    -0.0050467359619215
 277    -0.0081527307072558
 278     0.001754347885028
 279    2.3488183657941e-17
 280    4.4201809947997e-17
 281     0.019737440871077
 282      0.15067636654338
 283      0.11184184808494
 284      0.48791652664651
 285      0.41868777766455
 286    2.0488867823403e-17
 287    -0.053367395995321
 288      0.12600031575851
 289    5.041692501734e-17
 290    -0.063275155819196
 291     0.076080113061026
 292    -1.4143553514528e-16
 293    -0.061111473477345
 294      0.12175416561788
 295    -6.9653984287361e-18
 296     -0.10690147148925
 297     0.049179613747265
 298    -0.023401654250485
 299    -0.011411723263842
 300    0.0064081907502742
 301    1.5832289060571e-17
 302    1.1429884123407e-17
 303    -0.029860626111588
 304     -0.14296049873449
 305     -0.13271890318825
 306     -0.14624102873724
 307    -9.4264151678154e-17
 308    -4.3015002331713e-17
 309     0.024891454511053
 310    -0.074897020900175
 311     0.013471497959086
 312    -0.00035508322359367
 313    6.5482601553864e-17
 314    9.2728896090891e-18
 315    -0.050472911800119
 316    9.3393138336669e-18
 317    -0.0029379360329762
 318     0.018327418245677
 319    2.0301100138557e-18
 320    0.00029275916626564
 321    -0.0020936996744288
 322    5.9981381204421e-18
 323    -0.005759894464521
 324    0.0059916306152135
 325    -1.2628254080797e-18
 326    5.2006856026922e-17
 327    -0.022972042583833
 328    -0.028833069818153
 329    6.2953542006934e-17
 330    0.0069154337900235
 331    -0.023113171835548
 332    3.573760798396e-17
 333    -0.025225966427599
 334     0.024132887821291
 335    -4.1258135280124e-18
 336     0.018476179080841
 337     0.021584226875333
 338     0.041063398267006
 339    3.4392224253271e-17
 340     1.52123674525e-17
 341    2.9462839958457e-17
 342    -0.018662235940086
 343    1.9550088355124e-17
 344    -0.028702946410492
 345     0.010717630259553
 346     0.011081608930766
 347     0.011917010970623
 348    -0.0073895538162494
 349    1.028410336747e-17
 350    1.3067017208322e-17
 351     0.019737440870619
 352       0.1506763665427
 353      0.11184184807699
 354      0.48791652668001
 355      0.41868777766896
 356    1.9224280261877e-17
 357     0.053367395995303
 358       0.1260003157585
 359    5.3048668342374e-17
 360      0.06327515581577
 361     0.076080113064679
 362    -1.2993429927146e-16
 363      0.06111147349707
 364      0.12175416559065
 365    -9.7712633690877e-18
 366      0.10690147149223
 367     0.049179613745264
 368    -0.023401654249069
 369     -0.01141172326285
 370    0.0064081907507749
 371    -2.922388581813e-18
 372    6.5893377683348e-18
 373     0.029860626111754
 374     -0.14296049874219
 375     -0.13271890319285
 376     -0.14624102874005
 377    4.2318933740177e-17
 378    5.0049533914714e-18
 379    -0.024891454512101
 380    -0.074897020900796
 381     0.013471497971304
 382    -0.00035508322706016
 383    -2.0851256423447e-17
 384    -4.0017601874162e-17
 385     0.050472911800289
 386    2.0879604813416e-18
 387    0.0029379360328058
 388     0.018327418245791
 389    -4.2874243673997e-19
 390    -0.0002927591664264
 391    -0.0020936996743252
 392    5.0465677157867e-18
 393    0.0057598944644285
 394    0.0059916306152162
 395    1.3058298151587e-18
 396    4.2255810620228e-17
 397     0.022972042578764
 398    -0.028833069812419
 399    4.611752578524e-17
 400    -0.0069154337925025
 401    -0.023113171832554
 402    3.5634505597975e-17
 403     0.025225966425801
 404     0.024132887822753
 405    7.9789377187618e-18
 406     0.018476179083899
 407     0.021584226877673
 408     0.041063398267422
 409    -1.3868575046765e-17
 410    1.0371981474628e-18
 411    -1.3126265199656e-17
 412     0.018662235940233
 413    7.4840283285621e-18
 414     0.028702946410802
 415     0.010717630260998
 416     0.011081608931795
 417     0.011917010971603
 418    0.0073895538164052
 419    5.8127416146615e-18
 420    -4.3527682389957e-18
 421    0.00071427081973618
 422    -0.058606937604766
 423      0.14512887423399
 424    -0.025451944831435
 425    2.4457391616707e-18
 426    1.7002434188664e-13
 427     0.012310812889499
 428    -9.9715621056165e-18
 429    -6.3054762969986e-13
 430     -0.06242920030556
 431    8.524010312731e-18
 432    7.852657701889e-13
 433     0.034620113275699
 434    0.00021096931506096
 435    0.00023613228329473
 436    -0.00040703790834878
 437    2.4249463042108e-19
 438    -1.3652010354581e-19
 439    -5.9748436374719e-15
 440    -0.011724630506709
 441    -0.0069223512054115
 442    -0.012974162398214
 443    -1.3022816960703e-18
 444    -1.1262792725892e-18
 445    3.6216650593347e-14
 446    3.245540685749e-18
 447    2.4997386438956e-13
 448     0.017254951005202
 449    2.0604843985181e-18
 450    1.1800106788144e-13
 451    0.0062247414492876
 452    9.292592656987e-19
 453    1.1510338723443e-13
 454    0.0082349104619092
 455    -1.0964748729754e-19
 456    0.00043773892039605
 457    -0.056911606925474
 458    -0.079290245946339
 459    -0.010897885121119
 460    -1.4631910143907e-18
 461    -0.017639512586576
 462     -0.01082961958965
 463    -2.7049966739937e-18
 464      0.07609088166676
 465     0.043275839384932
 466    2.1146136100624e-17
 467     0.026299938553699
 468     0.011422800758247
 469    -8.9175732548984e-05
 470    -0.00010723688739022
 471    0.00066857293122591
 472    2.3462991766747e-18
 473    3.5143732353541e-18
 474    0.00065896523802584
 475    -0.013912504738633
 476    -0.018026819756384
 477    -0.0090873677335754
 478    2.3198437405195e-18
 479    -2.2616331085897e-18
 480    -0.0043410007894552
 481    -3.5865683959237e-18
 482    -0.023456702085243
 483    -0.015620464449358
 484    -2.4413056953269e-18
 485    -0.0093464064851446
 486    -0.0055654175225922
 487    -3.9468202262721e-18
 488    -0.011443676539249
 489    -0.0062377404138498
 490    -4.4031798260204e-18
 491    0.00043773892042018
 492    -0.056911606925916
 493    -0.079290245941881
 494    -0.010897885121439
 495    2.0039877020853e-18
 496      0.01763951258675
 497    -0.010829619589762
 498    -1.0258024467681e-17
 499    -0.076090881667531
 500     0.043275839385405
 501    3.314675902897e-17
 502    -0.026299938552959
 503     0.011422800757615
 504    -8.9175732540364e-05
 505    -0.00010723688737409
 506    0.00066857293124194
 507    -1.475221458053e-18
 508    1.0647390764767e-19
 509    -0.00065896523802389
 510    -0.013912504738638
 511    -0.018026819756469
 512    -0.0090873677336317
 513    1.0411530414169e-17
 514    -3.8308669618891e-18
 515    0.0043410007894758
 516    3.7900840313339e-18
 517     0.023456702085503
 518     -0.01562046444952
 519    2.7713945847364e-18
 520    0.0093464064852556
 521    -0.0055654175226722
 522    5.3197477815492e-18
 523     0.011443676539365
 524    -0.0062377404139301
 525    1.6905382975966e-18
 526    -0.00034345887365173
 527     0.043387578265741
 528     -0.10422827979227
 529     0.020207318534321
 530    2.3718515606914e-17
 531       0.0106644884557
 532    -0.00019621447581945
 533    -9.0397720223972e-17
 534    -0.050510506271658
 535     0.004883404310495
 536    -1.4432218567739e-17
 537     0.026568721881757
 538     -0.01135351714073
 539    4.1803579759623e-05
 540    -9.1214024575154e-05
 541    2.4556752161865e-05
 542    -7.535593066989e-19
 543    1.5904846718592e-18
 544    -0.00010888511819266
 545    0.0089533790160287
 546    0.0092434010970607
 547    0.0040444021096716
 548    1.0062374727453e-17
 549    -1.2453210396454e-17
 550    0.00028158114192753
 551    3.7469474133801e-17
 552     0.015511657928328
 553    -0.00072988939641286
 554    1.5199159404119e-17
 555    0.0054933437895299
 556    0.00019657183953982
 557    1.5029818193923e-17
 558    0.0072143465194273
 559    -0.00035950135635718
 560    1.5561525167802e-18
 561    -0.00034345887361445
 562     0.043387578265097
 563      -0.1042282798059
 564     0.020207318534973
 565    1.4830976225463e-17
 566    -0.010664488455211
 567    -0.00019621447585611
 568    -5.2718452561585e-17
 569      0.05051050626952
 570    0.0048834043104647
 571    -1.1651799711097e-17
 572    -0.026568721885094
 573    -0.011353517143519
 574    4.1803579773058e-05
 575    -9.1214024540475e-05
 576    2.4556752174196e-05
 577    1.601815722069e-18
 578    1.0335228091303e-18
 579    0.00010888511820948